# vtk DataFile Version 3.0
#This file was generated by the deal.II library on 2020/8/22 at 21:53:45
ASCII
DATASET UNSTRUCTURED_GRID

POINTS 576 double
-1 -1 0
-0.833333 -1 0
-1 -0.833333 0
-0.833333 -0.833333 0
-0.833333 -1 0
-0.666667 -1 0
-0.833333 -0.833333 0
-0.666667 -0.833333 0
-1 -0.833333 0
-0.833333 -0.833333 0
-1 -0.666667 0
-0.833333 -0.666667 0
-0.833333 -0.833333 0
-0.666667 -0.833333 0
-0.833333 -0.666667 0
-0.666667 -0.666667 0
-0.666667 -1 0
-0.5 -1 0
-0.666667 -0.833333 0
-0.5 -0.833333 0
-0.5 -1 0
-0.333333 -1 0
-0.5 -0.833333 0
-0.333333 -0.833333 0
-0.666667 -0.833333 0
-0.5 -0.833333 0
-0.666667 -0.666667 0
-0.5 -0.666667 0
-0.5 -0.833333 0
-0.333333 -0.833333 0
-0.5 -0.666667 0
-0.333333 -0.666667 0
-1 -0.666667 0
-0.833333 -0.666667 0
-1 -0.5 0
-0.833333 -0.5 0
-0.833333 -0.666667 0
-0.666667 -0.666667 0
-0.833333 -0.5 0
-0.666667 -0.5 0
-1 -0.5 0
-0.833333 -0.5 0
-1 -0.333333 0
-0.833333 -0.333333 0
-0.833333 -0.5 0
-0.666667 -0.5 0
-0.833333 -0.333333 0
-0.666667 -0.333333 0
-0.666667 -0.666667 0
-0.5 -0.666667 0
-0.666667 -0.5 0
-0.5 -0.5 0
-0.5 -0.666667 0
-0.333333 -0.666667 0
-0.5 -0.5 0
-0.333333 -0.5 0
-0.666667 -0.5 0
-0.5 -0.5 0
-0.666667 -0.333333 0
-0.5 -0.333333 0
-0.5 -0.5 0
-0.333333 -0.5 0
-0.5 -0.333333 0
-0.333333 -0.333333 0
-0.333333 -1 0
-0.166667 -1 0
-0.333333 -0.833333 0
-0.166667 -0.833333 0
-0.166667 -1 0
-5.55112e-17 -1 0
-0.166667 -0.833333 0
-5.55112e-17 -0.833333 0
-0.333333 -0.833333 0
-0.166667 -0.833333 0
-0.333333 -0.666667 0
-0.166667 -0.666667 0
-0.166667 -0.833333 0
-5.55112e-17 -0.833333 0
-0.166667 -0.666667 0
-5.55112e-17 -0.666667 0
-5.55112e-17 -1 0
0.166667 -1 0
-5.55112e-17 -0.833333 0
0.166667 -0.833333 0
0.166667 -1 0
0.333333 -1 0
0.166667 -0.833333 0
0.333333 -0.833333 0
-5.55112e-17 -0.833333 0
0.166667 -0.833333 0
-5.55112e-17 -0.666667 0
0.166667 -0.666667 0
0.166667 -0.833333 0
0.333333 -0.833333 0
0.166667 -0.666667 0
0.333333 -0.666667 0
-0.333333 -0.666667 0
-0.166667 -0.666667 0
-0.333333 -0.5 0
-0.166667 -0.5 0
-0.166667 -0.666667 0
-5.55112e-17 -0.666667 0
-0.166667 -0.5 0
-5.55112e-17 -0.5 0
-0.333333 -0.5 0
-0.166667 -0.5 0
-0.333333 -0.333333 0
-0.166667 -0.333333 0
-0.166667 -0.5 0
-5.55112e-17 -0.5 0
-0.166667 -0.333333 0
-5.55112e-17 -0.333333 0
-5.55112e-17 -0.666667 0
0.166667 -0.666667 0
-5.55112e-17 -0.5 0
0.166667 -0.5 0
0.166667 -0.666667 0
0.333333 -0.666667 0
0.166667 -0.5 0
0.333333 -0.5 0
-5.55112e-17 -0.5 0
0.166667 -0.5 0
-5.55112e-17 -0.333333 0
0.166667 -0.333333 0
0.166667 -0.5 0
0.333333 -0.5 0
0.166667 -0.333333 0
0.333333 -0.333333 0
0.333333 -1 0
0.5 -1 0
0.333333 -0.833333 0
0.5 -0.833333 0
0.5 -1 0
0.666667 -1 0
0.5 -0.833333 0
0.666667 -0.833333 0
0.333333 -0.833333 0
0.5 -0.833333 0
0.333333 -0.666667 0
0.5 -0.666667 0
0.5 -0.833333 0
0.666667 -0.833333 0
0.5 -0.666667 0
0.666667 -0.666667 0
0.666667 -1 0
0.833333 -1 0
0.666667 -0.833333 0
0.833333 -0.833333 0
0.833333 -1 0
1 -1 0
0.833333 -0.833333 0
1 -0.833333 0
0.666667 -0.833333 0
0.833333 -0.833333 0
0.666667 -0.666667 0
0.833333 -0.666667 0
0.833333 -0.833333 0
1 -0.833333 0
0.833333 -0.666667 0
1 -0.666667 0
0.333333 -0.666667 0
0.5 -0.666667 0
0.333333 -0.5 0
0.5 -0.5 0
0.5 -0.666667 0
0.666667 -0.666667 0
0.5 -0.5 0
0.666667 -0.5 0
0.333333 -0.5 0
0.5 -0.5 0
0.333333 -0.333333 0
0.5 -0.333333 0
0.5 -0.5 0
0.666667 -0.5 0
0.5 -0.333333 0
0.666667 -0.333333 0
0.666667 -0.666667 0
0.833333 -0.666667 0
0.666667 -0.5 0
0.833333 -0.5 0
0.833333 -0.666667 0
1 -0.666667 0
0.833333 -0.5 0
1 -0.5 0
0.666667 -0.5 0
0.833333 -0.5 0
0.666667 -0.333333 0
0.833333 -0.333333 0
0.833333 -0.5 0
1 -0.5 0
0.833333 -0.333333 0
1 -0.333333 0
-1 -0.333333 0
-0.833333 -0.333333 0
-1 -0.166667 0
-0.833333 -0.166667 0
-0.833333 -0.333333 0
-0.666667 -0.333333 0
-0.833333 -0.166667 0
-0.666667 -0.166667 0
-1 -0.166667 0
-0.833333 -0.166667 0
-1 -5.55112e-17 0
-0.833333 -5.55112e-17 0
-0.833333 -0.166667 0
-0.666667 -0.166667 0
-0.833333 -5.55112e-17 0
-0.666667 -5.55112e-17 0
-0.666667 -0.333333 0
-0.5 -0.333333 0
-0.666667 -0.166667 0
-0.5 -0.166667 0
-0.5 -0.333333 0
-0.333333 -0.333333 0
-0.5 -0.166667 0
-0.333333 -0.166667 0
-0.666667 -0.166667 0
-0.5 -0.166667 0
-0.666667 -5.55112e-17 0
-0.5 -5.55112e-17 0
-0.5 -0.166667 0
-0.333333 -0.166667 0
-0.5 -5.55112e-17 0
-0.333333 -5.55112e-17 0
-1 -5.55112e-17 0
-0.833333 -5.55112e-17 0
-1 0.166667 0
-0.833333 0.166667 0
-0.833333 -5.55112e-17 0
-0.666667 -5.55112e-17 0
-0.833333 0.166667 0
-0.666667 0.166667 0
-1 0.166667 0
-0.833333 0.166667 0
-1 0.333333 0
-0.833333 0.333333 0
-0.833333 0.166667 0
-0.666667 0.166667 0
-0.833333 0.333333 0
-0.666667 0.333333 0
-0.666667 -5.55112e-17 0
-0.5 -5.55112e-17 0
-0.666667 0.166667 0
-0.5 0.166667 0
-0.5 -5.55112e-17 0
-0.333333 -5.55112e-17 0
-0.5 0.166667 0
-0.333333 0.166667 0
-0.666667 0.166667 0
-0.5 0.166667 0
-0.666667 0.333333 0
-0.5 0.333333 0
-0.5 0.166667 0
-0.333333 0.166667 0
-0.5 0.333333 0
-0.333333 0.333333 0
-0.333333 -0.333333 0
-0.166667 -0.333333 0
-0.333333 -0.166667 0
-0.166667 -0.166667 0
-0.166667 -0.333333 0
-5.55112e-17 -0.333333 0
-0.166667 -0.166667 0
-5.55112e-17 -0.166667 0
-0.333333 -0.166667 0
-0.166667 -0.166667 0
-0.333333 -5.55112e-17 0
-0.166667 -5.55112e-17 0
-0.166667 -0.166667 0
-5.55112e-17 -0.166667 0
-0.166667 -5.55112e-17 0
-5.55112e-17 -5.55112e-17 0
-5.55112e-17 -0.333333 0
0.166667 -0.333333 0
-5.55112e-17 -0.166667 0
0.166667 -0.166667 0
0.166667 -0.333333 0
0.333333 -0.333333 0
0.166667 -0.166667 0
0.333333 -0.166667 0
-5.55112e-17 -0.166667 0
0.166667 -0.166667 0
-5.55112e-17 -5.55112e-17 0
0.166667 -5.55112e-17 0
0.166667 -0.166667 0
0.333333 -0.166667 0
0.166667 -5.55112e-17 0
0.333333 -5.55112e-17 0
-0.333333 -5.55112e-17 0
-0.166667 -5.55112e-17 0
-0.333333 0.166667 0
-0.166667 0.166667 0
-0.166667 -5.55112e-17 0
-5.55112e-17 -5.55112e-17 0
-0.166667 0.166667 0
-5.55112e-17 0.166667 0
-0.333333 0.166667 0
-0.166667 0.166667 0
-0.333333 0.333333 0
-0.166667 0.333333 0
-0.166667 0.166667 0
-5.55112e-17 0.166667 0
-0.166667 0.333333 0
-5.55112e-17 0.333333 0
-5.55112e-17 -5.55112e-17 0
0.166667 -5.55112e-17 0
-5.55112e-17 0.166667 0
0.166667 0.166667 0
0.166667 -5.55112e-17 0
0.333333 -5.55112e-17 0
0.166667 0.166667 0
0.333333 0.166667 0
-5.55112e-17 0.166667 0
0.166667 0.166667 0
-5.55112e-17 0.333333 0
0.166667 0.333333 0
0.166667 0.166667 0
0.333333 0.166667 0
0.166667 0.333333 0
0.333333 0.333333 0
0.333333 -0.333333 0
0.5 -0.333333 0
0.333333 -0.166667 0
0.5 -0.166667 0
0.5 -0.333333 0
0.666667 -0.333333 0
0.5 -0.166667 0
0.666667 -0.166667 0
0.333333 -0.166667 0
0.5 -0.166667 0
0.333333 -5.55112e-17 0
0.5 -5.55112e-17 0
0.5 -0.166667 0
0.666667 -0.166667 0
0.5 -5.55112e-17 0
0.666667 -5.55112e-17 0
0.666667 -0.333333 0
0.833333 -0.333333 0
0.666667 -0.166667 0
0.833333 -0.166667 0
0.833333 -0.333333 0
1 -0.333333 0
0.833333 -0.166667 0
1 -0.166667 0
0.666667 -0.166667 0
0.833333 -0.166667 0
0.666667 -5.55112e-17 0
0.833333 -5.55112e-17 0
0.833333 -0.166667 0
1 -0.166667 0
0.833333 -5.55112e-17 0
1 -5.55112e-17 0
0.333333 -5.55112e-17 0
0.5 -5.55112e-17 0
0.333333 0.166667 0
0.5 0.166667 0
0.5 -5.55112e-17 0
0.666667 -5.55112e-17 0
0.5 0.166667 0
0.666667 0.166667 0
0.333333 0.166667 0
0.5 0.166667 0
0.333333 0.333333 0
0.5 0.333333 0
0.5 0.166667 0
0.666667 0.166667 0
0.5 0.333333 0
0.666667 0.333333 0
0.666667 -5.55112e-17 0
0.833333 -5.55112e-17 0
0.666667 0.166667 0
0.833333 0.166667 0
0.833333 -5.55112e-17 0
1 -5.55112e-17 0
0.833333 0.166667 0
1 0.166667 0
0.666667 0.166667 0
0.833333 0.166667 0
0.666667 0.333333 0
0.833333 0.333333 0
0.833333 0.166667 0
1 0.166667 0
0.833333 0.333333 0
1 0.333333 0
-1 0.333333 0
-0.833333 0.333333 0
-1 0.5 0
-0.833333 0.5 0
-0.833333 0.333333 0
-0.666667 0.333333 0
-0.833333 0.5 0
-0.666667 0.5 0
-1 0.5 0
-0.833333 0.5 0
-1 0.666667 0
-0.833333 0.666667 0
-0.833333 0.5 0
-0.666667 0.5 0
-0.833333 0.666667 0
-0.666667 0.666667 0
-0.666667 0.333333 0
-0.5 0.333333 0
-0.666667 0.5 0
-0.5 0.5 0
-0.5 0.333333 0
-0.333333 0.333333 0
-0.5 0.5 0
-0.333333 0.5 0
-0.666667 0.5 0
-0.5 0.5 0
-0.666667 0.666667 0
-0.5 0.666667 0
-0.5 0.5 0
-0.333333 0.5 0
-0.5 0.666667 0
-0.333333 0.666667 0
-1 0.666667 0
-0.833333 0.666667 0
-1 0.833333 0
-0.833333 0.833333 0
-0.833333 0.666667 0
-0.666667 0.666667 0
-0.833333 0.833333 0
-0.666667 0.833333 0
-1 0.833333 0
-0.833333 0.833333 0
-1 1 0
-0.833333 1 0
-0.833333 0.833333 0
-0.666667 0.833333 0
-0.833333 1 0
-0.666667 1 0
-0.666667 0.666667 0
-0.5 0.666667 0
-0.666667 0.833333 0
-0.5 0.833333 0
-0.5 0.666667 0
-0.333333 0.666667 0
-0.5 0.833333 0
-0.333333 0.833333 0
-0.666667 0.833333 0
-0.5 0.833333 0
-0.666667 1 0
-0.5 1 0
-0.5 0.833333 0
-0.333333 0.833333 0
-0.5 1 0
-0.333333 1 0
-0.333333 0.333333 0
-0.166667 0.333333 0
-0.333333 0.5 0
-0.166667 0.5 0
-0.166667 0.333333 0
-5.55112e-17 0.333333 0
-0.166667 0.5 0
-5.55112e-17 0.5 0
-0.333333 0.5 0
-0.166667 0.5 0
-0.333333 0.666667 0
-0.166667 0.666667 0
-0.166667 0.5 0
-5.55112e-17 0.5 0
-0.166667 0.666667 0
-5.55112e-17 0.666667 0
-5.55112e-17 0.333333 0
0.166667 0.333333 0
-5.55112e-17 0.5 0
0.166667 0.5 0
0.166667 0.333333 0
0.333333 0.333333 0
0.166667 0.5 0
0.333333 0.5 0
-5.55112e-17 0.5 0
0.166667 0.5 0
-5.55112e-17 0.666667 0
0.166667 0.666667 0
0.166667 0.5 0
0.333333 0.5 0
0.166667 0.666667 0
0.333333 0.666667 0
-0.333333 0.666667 0
-0.166667 0.666667 0
-0.333333 0.833333 0
-0.166667 0.833333 0
-0.166667 0.666667 0
-5.55112e-17 0.666667 0
-0.166667 0.833333 0
-5.55112e-17 0.833333 0
-0.333333 0.833333 0
-0.166667 0.833333 0
-0.333333 1 0
-0.166667 1 0
-0.166667 0.833333 0
-5.55112e-17 0.833333 0
-0.166667 1 0
-5.55112e-17 1 0
-5.55112e-17 0.666667 0
0.166667 0.666667 0
-5.55112e-17 0.833333 0
0.166667 0.833333 0
0.166667 0.666667 0
0.333333 0.666667 0
0.166667 0.833333 0
0.333333 0.833333 0
-5.55112e-17 0.833333 0
0.166667 0.833333 0
-5.55112e-17 1 0
0.166667 1 0
0.166667 0.833333 0
0.333333 0.833333 0
0.166667 1 0
0.333333 1 0
0.333333 0.333333 0
0.5 0.333333 0
0.333333 0.5 0
0.5 0.5 0
0.5 0.333333 0
0.666667 0.333333 0
0.5 0.5 0
0.666667 0.5 0
0.333333 0.5 0
0.5 0.5 0
0.333333 0.666667 0
0.5 0.666667 0
0.5 0.5 0
0.666667 0.5 0
0.5 0.666667 0
0.666667 0.666667 0
0.666667 0.333333 0
0.833333 0.333333 0
0.666667 0.5 0
0.833333 0.5 0
0.833333 0.333333 0
1 0.333333 0
0.833333 0.5 0
1 0.5 0
0.666667 0.5 0
0.833333 0.5 0
0.666667 0.666667 0
0.833333 0.666667 0
0.833333 0.5 0
1 0.5 0
0.833333 0.666667 0
1 0.666667 0
0.333333 0.666667 0
0.5 0.666667 0
0.333333 0.833333 0
0.5 0.833333 0
0.5 0.666667 0
0.666667 0.666667 0
0.5 0.833333 0
0.666667 0.833333 0
0.333333 0.833333 0
0.5 0.833333 0
0.333333 1 0
0.5 1 0
0.5 0.833333 0
0.666667 0.833333 0
0.5 1 0
0.666667 1 0
0.666667 0.666667 0
0.833333 0.666667 0
0.666667 0.833333 0
0.833333 0.833333 0
0.833333 0.666667 0
1 0.666667 0
0.833333 0.833333 0
1 0.833333 0
0.666667 0.833333 0
0.833333 0.833333 0
0.666667 1 0
0.833333 1 0
0.833333 0.833333 0
1 0.833333 0
0.833333 1 0
1 1 0

CELLS 144 720
4	0	1	3	2
4	4	5	7	6
4	8	9	11	10
4	12	13	15	14
4	16	17	19	18
4	20	21	23	22
4	24	25	27	26
4	28	29	31	30
4	32	33	35	34
4	36	37	39	38
4	40	41	43	42
4	44	45	47	46
4	48	49	51	50
4	52	53	55	54
4	56	57	59	58
4	60	61	63	62
4	64	65	67	66
4	68	69	71	70
4	72	73	75	74
4	76	77	79	78
4	80	81	83	82
4	84	85	87	86
4	88	89	91	90
4	92	93	95	94
4	96	97	99	98
4	100	101	103	102
4	104	105	107	106
4	108	109	111	110
4	112	113	115	114
4	116	117	119	118
4	120	121	123	122
4	124	125	127	126
4	128	129	131	130
4	132	133	135	134
4	136	137	139	138
4	140	141	143	142
4	144	145	147	146
4	148	149	151	150
4	152	153	155	154
4	156	157	159	158
4	160	161	163	162
4	164	165	167	166
4	168	169	171	170
4	172	173	175	174
4	176	177	179	178
4	180	181	183	182
4	184	185	187	186
4	188	189	191	190
4	192	193	195	194
4	196	197	199	198
4	200	201	203	202
4	204	205	207	206
4	208	209	211	210
4	212	213	215	214
4	216	217	219	218
4	220	221	223	222
4	224	225	227	226
4	228	229	231	230
4	232	233	235	234
4	236	237	239	238
4	240	241	243	242
4	244	245	247	246
4	248	249	251	250
4	252	253	255	254
4	256	257	259	258
4	260	261	263	262
4	264	265	267	266
4	268	269	271	270
4	272	273	275	274
4	276	277	279	278
4	280	281	283	282
4	284	285	287	286
4	288	289	291	290
4	292	293	295	294
4	296	297	299	298
4	300	301	303	302
4	304	305	307	306
4	308	309	311	310
4	312	313	315	314
4	316	317	319	318
4	320	321	323	322
4	324	325	327	326
4	328	329	331	330
4	332	333	335	334
4	336	337	339	338
4	340	341	343	342
4	344	345	347	346
4	348	349	351	350
4	352	353	355	354
4	356	357	359	358
4	360	361	363	362
4	364	365	367	366
4	368	369	371	370
4	372	373	375	374
4	376	377	379	378
4	380	381	383	382
4	384	385	387	386
4	388	389	391	390
4	392	393	395	394
4	396	397	399	398
4	400	401	403	402
4	404	405	407	406
4	408	409	411	410
4	412	413	415	414
4	416	417	419	418
4	420	421	423	422
4	424	425	427	426
4	428	429	431	430
4	432	433	435	434
4	436	437	439	438
4	440	441	443	442
4	444	445	447	446
4	448	449	451	450
4	452	453	455	454
4	456	457	459	458
4	460	461	463	462
4	464	465	467	466
4	468	469	471	470
4	472	473	475	474
4	476	477	479	478
4	480	481	483	482
4	484	485	487	486
4	488	489	491	490
4	492	493	495	494
4	496	497	499	498
4	500	501	503	502
4	504	505	507	506
4	508	509	511	510
4	512	513	515	514
4	516	517	519	518
4	520	521	523	522
4	524	525	527	526
4	528	529	531	530
4	532	533	535	534
4	536	537	539	538
4	540	541	543	542
4	544	545	547	546
4	548	549	551	550
4	552	553	555	554
4	556	557	559	558
4	560	561	563	562
4	564	565	567	566
4	568	569	571	570
4	572	573	575	574

CELL_TYPES 144
 9 9 9 9 9 9 9 9 9 9 9 9 9 9 9 9 9 9 9 9 9 9 9 9 9 9 9 9 9 9 9 9 9 9 9 9 9 9 9 9 9 9 9 9 9 9 9 9 9 9 9 9 9 9 9 9 9 9 9 9 9 9 9 9 9 9 9 9 9 9 9 9 9 9 9 9 9 9 9 9 9 9 9 9 9 9 9 9 9 9 9 9 9 9 9 9 9 9 9 9 9 9 9 9 9 9 9 9 9 9 9 9 9 9 9 9 9 9 9 9 9 9 9 9 9 9 9 9 9 9 9 9 9 9 9 9 9 9 9 9 9 9 9 9
POINT_DATA 576
VECTORS gradient double
0.0127424 0.010116 0
-0.0899924 0.0459557 0
0.0357862 -0.0679994 0
0.00149242 0.00525864 0
-0.124703 0.0444092 0
-0.191515 0.151837 0
-0.0600773 -0.0614125 0
-0.30808 -1.43603 0
0.0386134 -0.107155 0
-0.0592757 -0.0711015 0
0.130829 -0.188856 0
-1.46612 -0.293145 0
-0.131421 -0.15082 0
-0.284982 -2.32072 0
-2.31772 -0.291468 0
-7.22277 -7.16449 0
-0.27404 0.148837 0
-0.103112 0.181143 0
-0.612237 -0.957479 0
-0.308356 -4.16123 0
0.117469 0.182295 0
0.264051 0.135156 0
0.327767 -4.15283 0
0.591261 -0.991357 0
-0.568631 -1.70907 0
-0.308906 -6.25082 0
-9.02937 -6.38064 0
-2.43298 -19.0244 0
0.314581 -6.22778 0
0.544775 -1.69596 0
2.4398 -19.0173 0
8.98108 -6.48022 0
0.115104 -0.289437 0
-0.950954 -0.607068 0
0.188079 -0.159557 0
-4.17924 -0.330912 0
-1.66883 -0.586787 0
-6.44137 -8.95965 0
-6.22994 -0.347953 0
-18.9654 -2.47558 0
0.186156 0.0870143 0
-4.19638 0.354416 0
0.135796 0.281867 0
-0.938564 0.639735 0
-6.24057 0.329442 0
-18.9929 2.46114 0
-1.63265 0.610074 0
-6.39389 9.00961 0
-8.17877 -8.09354 0
-2.19882 -22.573 0
-22.5718 -2.15329 0
-5.31739 -5.37076 0
2.26131 -22.5539 0
8.15345 -8.14509 0
5.22689 -5.34414 0
22.514 -2.05813 0
-22.5887 2.37123 0
-5.29982 5.1842 0
-8.14627 8.19284 0
-2.18355 22.5479 0
5.21083 5.15866 0
22.5339 2.29257 0
2.22807 22.5271 0
8.15009 8.21015 0
0.183457 0.140279 0
0.119993 0.0400944 0
0.296933 -1.47997 0
0.0620545 -0.0593087 0
0.0811201 0.0402348 0
-0.013149 0.0135572 0
-0.00480075 -0.0064446 0
-0.0386591 -0.075487 0
0.274218 -2.31788 0
0.138856 -0.129618 0
7.22192 -7.25747 0
2.34138 -0.285355 0
0.0591252 -0.0753796 0
-0.039374 -0.111328 0
1.47344 -0.320675 0
-0.196122 -0.190924 0
0.00429378 0.0139227 0
-0.0956486 0.047355 0
0.0536933 -0.0760537 0
0.013733 0.00169488 0
-0.133258 0.0477178 0
-0.193222 0.150311 0
-0.04611 -0.065582 0
-0.306752 -1.44634 0
0.0442724 -0.111944 0
-0.0669972 -0.0704651 0
0.208937 -0.192859 0
-1.45718 -0.312918 0
-0.142838 -0.142746 0
-0.304509 -2.27349 0
-2.29544 -0.298845 0
-7.16612 -7.17867 0
6.4468 -9.00333 0
1.66653 -0.561253 0
18.9974 -2.36554 0
6.28437 -0.307484 0
0.945768 -0.624807 0
-0.186708 -0.293484 0
4.21604 -0.314077 0
-0.359435 -0.137559 0
19.0265 2.39914 0
6.29262 0.303033 0
6.42093 9.02563 0
1.61722 0.565981 0
4.23242 0.345568 0
-0.353547 0.110425 0
0.93863 0.636795 0
-0.204061 0.286203 0
0.228261 -0.295918 0
-0.894922 -0.649505 0
0.306242 -0.136302 0
-4.26888 -0.346104 0
-1.5859 -0.605841 0
-6.38976 -9.00476 0
-6.30438 -0.332859 0
-18.9722 -2.43517 0
0.311922 0.112675 0
-4.2606 0.357032 0
0.216248 0.288386 0
-0.926702 0.646007 0
-6.28306 0.329159 0
-18.9638 2.39098 0
-1.59132 0.599989 0
-6.46849 8.97804 0
-0.283877 0.136193 0
-0.0875959 0.186772 0
-0.641933 -0.938622 0
-0.355905 -4.19706 0
0.159218 0.18866 0
0.29273 0.115476 0
0.329546 -4.1801 0
0.606955 -0.954037 0
-0.612181 -1.63277 0
-0.330684 -6.2414 0
-9.01234 -6.39413 0
-2.464 -18.9938 0
0.34685 -6.23095 0
0.587467 -1.67224 0
2.47271 -18.9664 0
8.9552 -6.44424 0
0.192771 0.13115 0
0.12032 0.0373613 0
0.293144 -1.46991 0
0.0757588 -0.0709357 0
0.0826357 0.0338131 0
0.0310423 0.00324639 0
0.000905506 -0.00877896 0
-0.0459243 -0.112801 0
0.292435 -2.32201 0
0.155813 -0.144624 0
7.16 -7.22581 0
2.30713 -0.292239 0
0.0661831 -0.0712025 0
-0.0104 -0.148638 0
1.41936 -0.323065 0
-0.158157 -0.245083 0
-8.19551 -8.14645 0
-2.37404 -22.5894 0
-22.5508 -2.18381 0
-5.18716 -5.29974 0
2.15047 -22.5725 0
8.08872 -8.18052 0
5.36762 -5.31726 0
22.5701 -2.19899 0
-22.5299 2.22785 0
-5.16157 5.21094 0
-8.21256 8.14837 0
-2.29508 22.536 0
5.34092 5.22693 0
22.551 2.26064 0
2.05467 22.5161 0
8.13957 8.15286 0
6.37589 -9.03063 0
1.6909 -0.569349 0
19.0212 -2.43273 0
6.25695 -0.306143 0
0.943495 -0.614064 0
-0.332547 -0.275106 0
4.16401 -0.30042 0
-0.0548811 -0.0671239 0
19.0142 2.43856 0
6.23361 0.310523 0
6.47562 8.98071 0
1.67676 0.546256 0
4.1553 0.315214 0
-0.0623888 0.0647707 0
0.976762 0.594517 0
-0.337982 0.271097 0
0.149903 0.191103 0
-1.44634 0.304471 0
0.0475583 0.130559 0
-0.0657687 0.0434079 0
-2.27343 0.302312 0
-7.17849 7.16334 0
-0.142925 0.140167 0
-0.299051 2.29246 0
0.047193 0.0929066 0
0.0014901 -0.0164817 0
0.0139024 -0.00722699 0
-0.0763718 -0.0566601 0
-0.0706634 0.0642772 0
-0.313133 1.45416 0
-0.112288 -0.0472296 0
-0.193399 -0.212147 0
-9.00462 6.38702 0
-2.43499 18.9691 0
-0.606064 1.58294 0
-0.333123 6.30102 0
2.39113 18.9608 0
8.97912 6.46532 0
0.328898 6.27967 0
0.599552 1.58731 0
-0.649735 0.891914 0
-0.346321 4.26549 0
-0.296482 -0.23147 0
-0.136999 -0.30986 0
0.356817 4.25719 0
0.645877 0.922777 0
0.111958 -0.315548 0
0.287655 -0.220477 0
0.0135362 0.0102114 0
-0.0758107 0.0356744 0
0.0402047 -0.0840296 0
-0.00693036 0.0017462 0
-0.111678 0.0363976 0
-0.191465 0.192889 0
-0.0759156 -0.0621723 0
-0.321543 -1.47678 0
0.0400627 -0.122883 0
-0.0598014 -0.0651068 0
0.14008 -0.186144 0
-1.48074 -0.299965 0
-0.130162 -0.141901 0
-0.286222 -2.34472 0
-2.31873 -0.277214 0
-7.25868 -7.22538 0
-0.294046 0.183476 0
-0.138255 0.355793 0
-0.625709 -0.949108 0
-0.315275 -4.21975 0
0.109713 0.349896 0
0.285397 0.199801 0
0.344325 -4.23617 0
0.635316 -0.942975 0
-0.56215 -1.66987 0
-0.308626 -6.28809 0
-9.00456 -6.45025 0
-2.36717 -19.0011 0
0.301845 -6.29641 0
0.564804 -1.62171 0
2.39749 -19.0302 0
9.02269 -6.42483 0
7.1972 7.23599 0
2.29806 0.283527 0
0.301667 2.29389 0
0.141716 0.129929 0
1.47279 0.318573 0
-0.210176 0.189039 0
0.0683253 0.0606439 0
-0.0444544 0.124846 0
0.315677 1.48251 0
0.0645414 0.0618019 0
0.19012 -0.205566 0
0.123619 -0.0455396 0
-0.00250614 -0.00307813 0
-0.0470799 0.0882497 0
0.0868589 -0.0474522 0
-0.00918914 -0.00826429 0
0.201616 0.190784 0
-1.48651 0.315709 0
0.0414775 0.125475 0
-0.0672334 0.065178 0
-2.29804 0.302008 0
-7.23929 7.19589 0
-0.136213 0.144153 0
-0.288067 2.29326 0
0.0474912 0.0878419 0
0.00536031 -0.00468161 0
0.00861838 0.013021 0
-0.101493 -0.0503225 0
-0.0563207 0.0676116 0
-0.309567 1.4506 0
-0.137572 -0.0268514 0
-0.21668 -0.155404 0
0.188156 0.206198 0
0.125364 0.0403608 0
0.316969 -1.47722 0
0.0598711 -0.0744732 0
0.087965 0.0471031 0
0.0133286 0.00961062 0
-0.00662185 0.00412795 0
-0.0507301 -0.101444 0
0.282226 -2.30271 0
0.130886 -0.148835 0
7.23275 -7.2013 0
2.2868 -0.307557 0
0.0596163 -0.0610302 0
-0.0275545 -0.138227 0
1.45793 -0.308157 0
-0.153507 -0.220679 0
0.0303445 0.0301809 0
0.0239946 -0.000703744 0
-0.00145247 0.023171 0
-0.00337668 -0.00379164 0
0.0241847 0.0177616 0
0.0320712 0.0511359 0
-0.00255944 0.0050136 0
-0.00882723 -0.0228101 0
0.0166855 0.0228701 0
0.00560172 -0.00305364 0
0.0527572 0.0299057 0
-0.0216716 -0.0097407 0
0.00936493 0.00876214 0
0.00533713 -0.00507381 0
-0.00405895 0.00454239 0
-0.000934494 -0.00149447 0
-9.02752 6.41923 0
-2.40116 19.0282 0
-0.565407 1.6031 0
-0.300887 6.30778 0
2.36143 18.9994 0
8.99765 6.44727 0
0.301682 6.30028 0
0.558906 1.65387 0
-0.617467 0.910149 0
-0.337016 4.21719 0
-0.274957 -0.267735 0
-0.0762829 -0.0969009 0
0.299715 4.20154 0
0.602033 0.918183 0
0.100771 -0.0990929 0
0.282011 -0.255828 0
7.25328 7.2231 0
2.30339 0.282485 0
0.288909 2.33985 0
0.138348 0.154557 0
1.46222 0.313863 0
-0.155098 0.243188 0
0.0670343 0.0742363 0
-0.0110989 0.15272 0
0.309179 1.45396 0
0.0741355 0.0698998 0
0.220784 -0.14524 0
0.136025 -0.0210761 0
0.00842217 0.00395696 0
-0.0443586 0.11319 0
0.101952 -0.0422067 0
0.0366564 0.0181164 0
-0.00217152 -0.0579911 0
-0.0314377 0.236408 0
-0.0180351 -0.027307 0
-0.0101446 -0.0232399 0
0.0256325 0.234649 0
0.00229475 -0.0518004 0
0.00914462 -0.0237958 0
0.0179612 -0.0269884 0
0.000974472 -0.0129195 0
-0.00336311 0.00800201 0
-0.00190228 -0.00171959 0
-0.00194247 -0.00120714 0
0.00174312 0.00753202 0
-0.000908295 -0.0128082 0
-0.000641911 -0.0013467 0
-0.00124096 -0.00274427 0
-0.0296016 0.0551131 0
-0.0112707 0.0185714 0
0.00924378 -0.0232824 0
0.00463968 -0.00123997 0
-0.0108539 0.000288516 0
0.00293843 0.0189334 0
0.0030126 -0.00210924 0
0.000945231 3.01211e-05 0
-0.00463246 -0.00575217 0
-0.00531506 0.00184557 0
-0.00226566 -0.00269802 0
-0.00286136 -0.000604205 0
-0.00431373 0.000528482 0
-0.00242641 0.000863828 0
-0.00264955 -0.000832618 0
-0.00245691 -0.000133417 0
0.134951 -0.266705 0
-0.99216 -0.59428 0
0.181752 -0.119559 0
-4.1542 -0.33073 0
-1.69684 -0.547755 0
-6.48146 -8.98453 0
-6.22927 -0.317373 0
-19.019 -2.44377 0
0.180574 0.101074 0
-4.16275 0.305405 0
0.147668 0.274167 0
-0.960684 0.60931 0
-6.25248 0.306127 0
-19.0261 2.42897 0
-1.71257 0.566612 0
-6.38357 9.02291 0
-8.14633 -8.15687 0
-2.05976 -22.5175 0
-22.5554 -2.26527 0
-5.34541 -5.23059 0
2.29091 -22.5374 0
8.20687 -8.15338 0
5.15733 -5.21448 0
22.5266 -2.23111 0
-22.5745 2.19483 0
-5.37196 5.31355 0
-8.0954 8.17178 0
-2.15384 22.5684 0
5.18281 5.29594 0
22.5473 2.18004 0
2.36999 22.5852 0
8.19165 8.14078 0
0.150619 0.191796 0
-1.44023 0.305069 0
0.0421183 0.134799 0
-0.0731473 0.0590139 0
-2.32538 0.283097 0
-7.1675 7.21626 0
-0.164004 0.131269 0
-0.297392 2.29759 0
0.0424138 0.100464 0
-0.00698811 -0.00112723 0
0.000636678 0.0499127 0
-0.102807 -0.0537838 0
-0.0833584 0.0585719 0
-0.308523 1.44246 0
-0.139472 -0.0161595 0
-0.244081 -0.160795 0
-8.96072 6.43442 0
-2.47537 18.9615 0
-0.585285 1.64386 0
-0.34269 6.23811 0
2.45943 18.989 0
9.00793 6.38899 0
0.326526 6.24931 0
0.608663 1.61256 0
-0.606035 0.932556 0
-0.315705 4.1824 0
-0.27995 -0.3695 0
-0.0939272 -0.0185013 0
0.34333 4.20005 0
0.638122 0.924776 0
0.0428479 -0.0129662 0
0.270118 -0.367642 0
6.46202 -8.98206 0
1.57292 -0.601281 0
18.9599 -2.39368 0
6.28837 -0.327448 0
0.894265 -0.62926 0
-0.277278 -0.284241 0
4.23474 -0.34897 0
-0.0778837 -0.0812453 0
18.9683 2.43106 0
6.30962 0.329389 0
6.38681 8.99924 0
1.57373 0.605417 0
4.24284 0.334815 0
-0.0738764 0.110615 0
0.868433 0.629301 0
-0.28147 0.295381 0
-0.0659217 -0.00925658 0
-0.0285277 -0.0201237 0
0.254335 -0.034171 0
-0.0173349 -0.0099575 0
-0.0139466 -0.000720522 0
-0.0015431 -0.00262715 0
0.0130503 -0.0031488 0
-0.000145623 -0.00179317 0
0.257975 0.0367124 0
-0.0169675 0.0129207 0
-0.0714457 0.0131999 0
-0.0322696 0.0215338 0
0.0134046 0.00475545 0
-0.000145177 0.000261889 0
-0.0177355 0.00203209 0
-0.00393396 -0.000365478 0
7.16326 7.17414 0
2.29156 0.302194 0
0.3078 2.25773 0
0.155595 0.149869 0
1.43544 0.301304 0
-0.155153 0.224414 0
0.0753552 0.0669638 0
-0.02522 0.134474 0
0.319119 1.42734 0
0.0563334 0.0710667 0
0.242975 -0.16904 0
0.161849 -0.0119694 0
-0.00666781 -0.00238225 0
-0.0519934 0.0988307 0
0.122305 -0.0529827 0
0.0224909 0.0324774 0
0.0484675 -0.0279461 0
-0.0252318 0.0102246 0
0.0155755 -0.0133821 0
-0.00254428 0.00334564 0
-0.0078424 -0.00370128 0
-0.0034786 -0.00196625 0
0.000501616 -0.00629956 0
-0.00117753 -0.00325626 0
-0.00745328 -0.0144366 0
-0.0045082 0.00139336 0
0.0225766 -0.00111097 0
0.000880004 -0.00112962 0
-0.00176813 -0.00558349 0
-0.00158168 -0.00315517 0
0.0015638 -0.0041045 0
-5.10081e-05 -0.00308804 0
-0.00219769 -0.00245075 0
-0.00144089 -0.000790703 0
0.00021648 -0.00121725 0
-0.00126511 -0.00127423 0
-0.00104536 -0.000827881 0
-0.00158509 -0.00269822 0
-0.00113229 -0.00123789 0
-0.00147181 -0.00131673 0
0.000291161 -0.000317172 0
-0.00118643 -0.00100912 0
-0.00383407 -0.000894647 0
-0.00169711 -0.00127508 0
-0.00113643 -0.00110186 0
-0.00148018 -0.00128214 0
-0.00165885 -0.00134803 0
-0.00125507 -0.00112576 0
-0.00211375 -0.00238491 0
-0.00275013 -0.00049809 0
-0.00161576 -0.00132141 0
-0.00187091 -0.000668026 0
-0.00261528 -0.000724283 0
-0.00273161 -6.22668e-05 0
-0.00185195 -0.000713924 0
-0.00198497 -1.47256e-06 0
-0.00156675 -0.00129116 0
-0.00181569 -0.000641437 0
-0.00126742 -0.0011415 0
-0.00123588 -0.000622722 0
-0.00182365 -0.000688962 0
-0.00198191 -2.335e-06 0
-0.00123988 -0.000635404 0
-0.00131938 1.04046e-06 0
-0.0031138 -0.00183904 0
-0.00162914 -0.00155272 0
-0.00103706 -0.0031128 0
-0.000907429 -0.00201104 0
-0.00158621 -0.00153308 0
-0.00124482 -0.00118318 0
-0.000859345 -0.00194741 0
-0.000686272 -0.00127199 0
-0.00143245 -0.00306659 0
-0.000992469 -0.00203195 0
2.3312e-05 -0.00328666 0
1.99125e-05 -0.00209504 0
-0.000942139 -0.00199184 0
-0.000709673 -0.00129205 0
1.94404e-05 -0.00207069 0
1.60846e-05 -0.00127171 0
-0.00124915 -0.00118327 0
-0.00122218 -0.00063285 0
-0.000674707 -0.0012552 0
-0.000619115 -0.00064608 0
-0.00122947 -0.000641707 0
-0.0013116 -9.23627e-07 0
-0.000618125 -0.000640701 0
-0.000651053 -7.22199e-06 0
-0.000695613 -0.00127681 0
-0.000625814 -0.000653071 0
1.47735e-05 -0.00125377 0
1.11329e-05 -0.00062252 0
-0.000624668 -0.000646437 0
-0.000655525 -8.54333e-06 0
1.11247e-05 -0.000612115 0
1.16487e-05 -1.10418e-05 0
SCALARS solution double 1
LOOKUP_TABLE default