# vtk DataFile Version 3.0
#This file was generated by the deal.II library on 2020/8/22 at 21:54:08
ASCII
DATASET UNSTRUCTURED_GRID

POINTS 9216 double
-1 -1 0
-1 -0.972222 0
-1 -0.944444 0
-1 -0.916667 0
-0.916667 -1 0
-0.916667 -0.972222 0
-0.916667 -0.944444 0
-0.916667 -0.916667 0
-1 -1 0
-0.972222 -1 0
-0.944444 -1 0
-0.916667 -1 0
-1 -0.916667 0
-0.972222 -0.916667 0
-0.944444 -0.916667 0
-0.916667 -0.916667 0
-0.916667 -1 0
-0.916667 -0.972222 0
-0.916667 -0.944444 0
-0.916667 -0.916667 0
-0.833333 -1 0
-0.833333 -0.972222 0
-0.833333 -0.944444 0
-0.833333 -0.916667 0
-0.916667 -1 0
-0.888889 -1 0
-0.861111 -1 0
-0.833333 -1 0
-0.916667 -0.916667 0
-0.888889 -0.916667 0
-0.861111 -0.916667 0
-0.833333 -0.916667 0
-1 -0.916667 0
-1 -0.888889 0
-1 -0.861111 0
-1 -0.833333 0
-0.916667 -0.916667 0
-0.916667 -0.888889 0
-0.916667 -0.861111 0
-0.916667 -0.833333 0
-1 -0.916667 0
-0.972222 -0.916667 0
-0.944444 -0.916667 0
-0.916667 -0.916667 0
-1 -0.833333 0
-0.972222 -0.833333 0
-0.944444 -0.833333 0
-0.916667 -0.833333 0
-0.916667 -0.916667 0
-0.916667 -0.888889 0
-0.916667 -0.861111 0
-0.916667 -0.833333 0
-0.833333 -0.916667 0
-0.833333 -0.888889 0
-0.833333 -0.861111 0
-0.833333 -0.833333 0
-0.916667 -0.916667 0
-0.888889 -0.916667 0
-0.861111 -0.916667 0
-0.833333 -0.916667 0
-0.916667 -0.833333 0
-0.888889 -0.833333 0
-0.861111 -0.833333 0
-0.833333 -0.833333 0
-0.833333 -1 0
-0.833333 -0.972222 0
-0.833333 -0.944444 0
-0.833333 -0.916667 0
-0.75 -1 0
-0.75 -0.972222 0
-0.75 -0.944444 0
-0.75 -0.916667 0
-0.833333 -1 0
-0.805556 -1 0
-0.777778 -1 0
-0.75 -1 0
-0.833333 -0.916667 0
-0.805556 -0.916667 0
-0.777778 -0.916667 0
-0.75 -0.916667 0
-0.75 -1 0
-0.75 -0.972222 0
-0.75 -0.944444 0
-0.75 -0.916667 0
-0.666667 -1 0
-0.666667 -0.972222 0
-0.666667 -0.944444 0
-0.666667 -0.916667 0
-0.75 -1 0
-0.722222 -1 0
-0.694444 -1 0
-0.666667 -1 0
-0.75 -0.916667 0
-0.722222 -0.916667 0
-0.694444 -0.916667 0
-0.666667 -0.916667 0
-0.833333 -0.916667 0
-0.833333 -0.888889 0
-0.833333 -0.861111 0
-0.833333 -0.833333 0
-0.75 -0.916667 0
-0.75 -0.888889 0
-0.75 -0.861111 0
-0.75 -0.833333 0
-0.833333 -0.916667 0
-0.805556 -0.916667 0
-0.777778 -0.916667 0
-0.75 -0.916667 0
-0.833333 -0.833333 0
-0.805556 -0.833333 0
-0.777778 -0.833333 0
-0.75 -0.833333 0
-0.75 -0.916667 0
-0.75 -0.888889 0
-0.75 -0.861111 0
-0.75 -0.833333 0
-0.666667 -0.916667 0
-0.666667 -0.888889 0
-0.666667 -0.861111 0
-0.666667 -0.833333 0
-0.75 -0.916667 0
-0.722222 -0.916667 0
-0.694444 -0.916667 0
-0.666667 -0.916667 0
-0.75 -0.833333 0
-0.722222 -0.833333 0
-0.694444 -0.833333 0
-0.666667 -0.833333 0
-1 -0.833333 0
-1 -0.805556 0
-1 -0.777778 0
-1 -0.75 0
-0.916667 -0.833333 0
-0.916667 -0.805556 0
-0.916667 -0.777778 0
-0.916667 -0.75 0
-1 -0.833333 0
-0.972222 -0.833333 0
-0.944444 -0.833333 0
-0.916667 -0.833333 0
-1 -0.75 0
-0.972222 -0.75 0
-0.944444 -0.75 0
-0.916667 -0.75 0
-0.916667 -0.833333 0
-0.916667 -0.805556 0
-0.916667 -0.777778 0
-0.916667 -0.75 0
-0.833333 -0.833333 0
-0.833333 -0.805556 0
-0.833333 -0.777778 0
-0.833333 -0.75 0
-0.916667 -0.833333 0
-0.888889 -0.833333 0
-0.861111 -0.833333 0
-0.833333 -0.833333 0
-0.916667 -0.75 0
-0.888889 -0.75 0
-0.861111 -0.75 0
-0.833333 -0.75 0
-1 -0.75 0
-1 -0.722222 0
-1 -0.694444 0
-1 -0.666667 0
-0.916667 -0.75 0
-0.916667 -0.722222 0
-0.916667 -0.694444 0
-0.916667 -0.666667 0
-1 -0.75 0
-0.972222 -0.75 0
-0.944444 -0.75 0
-0.916667 -0.75 0
-1 -0.666667 0
-0.972222 -0.666667 0
-0.944444 -0.666667 0
-0.916667 -0.666667 0
-0.916667 -0.75 0
-0.916667 -0.722222 0
-0.916667 -0.694444 0
-0.916667 -0.666667 0
-0.833333 -0.75 0
-0.833333 -0.722222 0
-0.833333 -0.694444 0
-0.833333 -0.666667 0
-0.916667 -0.75 0
-0.888889 -0.75 0
-0.861111 -0.75 0
-0.833333 -0.75 0
-0.916667 -0.666667 0
-0.888889 -0.666667 0
-0.861111 -0.666667 0
-0.833333 -0.666667 0
-0.833333 -0.833333 0
-0.833333 -0.805556 0
-0.833333 -0.777778 0
-0.833333 -0.75 0
-0.75 -0.833333 0
-0.75 -0.805556 0
-0.75 -0.777778 0
-0.75 -0.75 0
-0.833333 -0.833333 0
-0.805556 -0.833333 0
-0.777778 -0.833333 0
-0.75 -0.833333 0
-0.833333 -0.75 0
-0.805556 -0.75 0
-0.777778 -0.75 0
-0.75 -0.75 0
-0.75 -0.833333 0
-0.75 -0.805556 0
-0.75 -0.777778 0
-0.75 -0.75 0
-0.666667 -0.833333 0
-0.666667 -0.805556 0
-0.666667 -0.777778 0
-0.666667 -0.75 0
-0.75 -0.833333 0
-0.722222 -0.833333 0
-0.694444 -0.833333 0
-0.666667 -0.833333 0
-0.75 -0.75 0
-0.722222 -0.75 0
-0.694444 -0.75 0
-0.666667 -0.75 0
-0.833333 -0.75 0
-0.833333 -0.722222 0
-0.833333 -0.694444 0
-0.833333 -0.666667 0
-0.75 -0.75 0
-0.75 -0.722222 0
-0.75 -0.694444 0
-0.75 -0.666667 0
-0.833333 -0.75 0
-0.805556 -0.75 0
-0.777778 -0.75 0
-0.75 -0.75 0
-0.833333 -0.666667 0
-0.805556 -0.666667 0
-0.777778 -0.666667 0
-0.75 -0.666667 0
-0.75 -0.75 0
-0.75 -0.722222 0
-0.75 -0.694444 0
-0.75 -0.666667 0
-0.666667 -0.75 0
-0.666667 -0.722222 0
-0.666667 -0.694444 0
-0.666667 -0.666667 0
-0.75 -0.75 0
-0.722222 -0.75 0
-0.694444 -0.75 0
-0.666667 -0.75 0
-0.75 -0.666667 0
-0.722222 -0.666667 0
-0.694444 -0.666667 0
-0.666667 -0.666667 0
-0.666667 -1 0
-0.666667 -0.972222 0
-0.666667 -0.944444 0
-0.666667 -0.916667 0
-0.583333 -1 0
-0.583333 -0.972222 0
-0.583333 -0.944444 0
-0.583333 -0.916667 0
-0.666667 -1 0
-0.638889 -1 0
-0.611111 -1 0
-0.583333 -1 0
-0.666667 -0.916667 0
-0.638889 -0.916667 0
-0.611111 -0.916667 0
-0.583333 -0.916667 0
-0.583333 -1 0
-0.583333 -0.972222 0
-0.583333 -0.944444 0
-0.583333 -0.916667 0
-0.5 -1 0
-0.5 -0.972222 0
-0.5 -0.944444 0
-0.5 -0.916667 0
-0.583333 -1 0
-0.555556 -1 0
-0.527778 -1 0
-0.5 -1 0
-0.583333 -0.916667 0
-0.555556 -0.916667 0
-0.527778 -0.916667 0
-0.5 -0.916667 0
-0.666667 -0.916667 0
-0.666667 -0.888889 0
-0.666667 -0.861111 0
-0.666667 -0.833333 0
-0.583333 -0.916667 0
-0.583333 -0.888889 0
-0.583333 -0.861111 0
-0.583333 -0.833333 0
-0.666667 -0.916667 0
-0.638889 -0.916667 0
-0.611111 -0.916667 0
-0.583333 -0.916667 0
-0.666667 -0.833333 0
-0.638889 -0.833333 0
-0.611111 -0.833333 0
-0.583333 -0.833333 0
-0.583333 -0.916667 0
-0.583333 -0.888889 0
-0.583333 -0.861111 0
-0.583333 -0.833333 0
-0.5 -0.916667 0
-0.5 -0.888889 0
-0.5 -0.861111 0
-0.5 -0.833333 0
-0.583333 -0.916667 0
-0.555556 -0.916667 0
-0.527778 -0.916667 0
-0.5 -0.916667 0
-0.583333 -0.833333 0
-0.555556 -0.833333 0
-0.527778 -0.833333 0
-0.5 -0.833333 0
-0.5 -1 0
-0.5 -0.972222 0
-0.5 -0.944444 0
-0.5 -0.916667 0
-0.416667 -1 0
-0.416667 -0.972222 0
-0.416667 -0.944444 0
-0.416667 -0.916667 0
-0.5 -1 0
-0.472222 -1 0
-0.444444 -1 0
-0.416667 -1 0
-0.5 -0.916667 0
-0.472222 -0.916667 0
-0.444444 -0.916667 0
-0.416667 -0.916667 0
-0.416667 -1 0
-0.416667 -0.972222 0
-0.416667 -0.944444 0
-0.416667 -0.916667 0
-0.333333 -1 0
-0.333333 -0.972222 0
-0.333333 -0.944444 0
-0.333333 -0.916667 0
-0.416667 -1 0
-0.388889 -1 0
-0.361111 -1 0
-0.333333 -1 0
-0.416667 -0.916667 0
-0.388889 -0.916667 0
-0.361111 -0.916667 0
-0.333333 -0.916667 0
-0.5 -0.916667 0
-0.5 -0.888889 0
-0.5 -0.861111 0
-0.5 -0.833333 0
-0.416667 -0.916667 0
-0.416667 -0.888889 0
-0.416667 -0.861111 0
-0.416667 -0.833333 0
-0.5 -0.916667 0
-0.472222 -0.916667 0
-0.444444 -0.916667 0
-0.416667 -0.916667 0
-0.5 -0.833333 0
-0.472222 -0.833333 0
-0.444444 -0.833333 0
-0.416667 -0.833333 0
-0.416667 -0.916667 0
-0.416667 -0.888889 0
-0.416667 -0.861111 0
-0.416667 -0.833333 0
-0.333333 -0.916667 0
-0.333333 -0.888889 0
-0.333333 -0.861111 0
-0.333333 -0.833333 0
-0.416667 -0.916667 0
-0.388889 -0.916667 0
-0.361111 -0.916667 0
-0.333333 -0.916667 0
-0.416667 -0.833333 0
-0.388889 -0.833333 0
-0.361111 -0.833333 0
-0.333333 -0.833333 0
-0.666667 -0.833333 0
-0.666667 -0.805556 0
-0.666667 -0.777778 0
-0.666667 -0.75 0
-0.583333 -0.833333 0
-0.583333 -0.805556 0
-0.583333 -0.777778 0
-0.583333 -0.75 0
-0.666667 -0.833333 0
-0.638889 -0.833333 0
-0.611111 -0.833333 0
-0.583333 -0.833333 0
-0.666667 -0.75 0
-0.638889 -0.75 0
-0.611111 -0.75 0
-0.583333 -0.75 0
-0.583333 -0.833333 0
-0.583333 -0.805556 0
-0.583333 -0.777778 0
-0.583333 -0.75 0
-0.5 -0.833333 0
-0.5 -0.805556 0
-0.5 -0.777778 0
-0.5 -0.75 0
-0.583333 -0.833333 0
-0.555556 -0.833333 0
-0.527778 -0.833333 0
-0.5 -0.833333 0
-0.583333 -0.75 0
-0.555556 -0.75 0
-0.527778 -0.75 0
-0.5 -0.75 0
-0.666667 -0.75 0
-0.666667 -0.722222 0
-0.666667 -0.694444 0
-0.666667 -0.666667 0
-0.583333 -0.75 0
-0.583333 -0.722222 0
-0.583333 -0.694444 0
-0.583333 -0.666667 0
-0.666667 -0.75 0
-0.638889 -0.75 0
-0.611111 -0.75 0
-0.583333 -0.75 0
-0.666667 -0.666667 0
-0.638889 -0.666667 0
-0.611111 -0.666667 0
-0.583333 -0.666667 0
-0.583333 -0.75 0
-0.583333 -0.722222 0
-0.583333 -0.694444 0
-0.583333 -0.666667 0
-0.5 -0.75 0
-0.5 -0.722222 0
-0.5 -0.694444 0
-0.5 -0.666667 0
-0.583333 -0.75 0
-0.555556 -0.75 0
-0.527778 -0.75 0
-0.5 -0.75 0
-0.583333 -0.666667 0
-0.555556 -0.666667 0
-0.527778 -0.666667 0
-0.5 -0.666667 0
-0.5 -0.833333 0
-0.5 -0.805556 0
-0.5 -0.777778 0
-0.5 -0.75 0
-0.416667 -0.833333 0
-0.416667 -0.805556 0
-0.416667 -0.777778 0
-0.416667 -0.75 0
-0.5 -0.833333 0
-0.472222 -0.833333 0
-0.444444 -0.833333 0
-0.416667 -0.833333 0
-0.5 -0.75 0
-0.472222 -0.75 0
-0.444444 -0.75 0
-0.416667 -0.75 0
-0.416667 -0.833333 0
-0.416667 -0.805556 0
-0.416667 -0.777778 0
-0.416667 -0.75 0
-0.333333 -0.833333 0
-0.333333 -0.805556 0
-0.333333 -0.777778 0
-0.333333 -0.75 0
-0.416667 -0.833333 0
-0.388889 -0.833333 0
-0.361111 -0.833333 0
-0.333333 -0.833333 0
-0.416667 -0.75 0
-0.388889 -0.75 0
-0.361111 -0.75 0
-0.333333 -0.75 0
-0.5 -0.75 0
-0.5 -0.722222 0
-0.5 -0.694444 0
-0.5 -0.666667 0
-0.416667 -0.75 0
-0.416667 -0.722222 0
-0.416667 -0.694444 0
-0.416667 -0.666667 0
-0.5 -0.75 0
-0.472222 -0.75 0
-0.444444 -0.75 0
-0.416667 -0.75 0
-0.5 -0.666667 0
-0.472222 -0.666667 0
-0.444444 -0.666667 0
-0.416667 -0.666667 0
-0.416667 -0.75 0
-0.416667 -0.722222 0
-0.416667 -0.694444 0
-0.416667 -0.666667 0
-0.333333 -0.75 0
-0.333333 -0.722222 0
-0.333333 -0.694444 0
-0.333333 -0.666667 0
-0.416667 -0.75 0
-0.388889 -0.75 0
-0.361111 -0.75 0
[...]
POINT_DATA 9216
SCALARS u_hat double 1
LOOKUP_TABLE default
1.53747e-05 2.88359e-05 5.53381e-05 9.92969e-05 0.000101358 0.000195734 0.000372525 0.000672718 1.53117e-05 2.88638e-05 5.53088e-05 9.93542e-05 0.000101284 0.000195775 0.000372494 0.000672797 0.000101358 0.000195734 0.000372525 0.000672718 0.000482007 0.000934458 0.0017765 0.00321083 9.90766e-05 0.000175519 0.000294477 0.000478312 0.000671807 0.00118367 0.00198938 0.00322622 9.89832e-05 0.00017557 0.000294442 0.000478417 0.000671656 0.00118374 0.00198931 0.00322638 0.000101284 0.000195775 0.000372494 0.000672797 0.000481795 0.000934567 0.00177641 0.00321105 0.000671656 0.00118374 0.00198931 0.00322638 0.00320644 0.00564627 0.00949144 0.0153899 0.000671807 0.00118367 0.00198938 0.00322622 0.0032069 0.00564607 0.00949164 0.0153895 0.000482007 0.000934458 0.0017765 0.00321083 0.00162201 0.00315157 0.00598765 0.0108273 0.00047362 0.00074607 0.00111419 0.00161456 0.00321174 0.00503061 0.00752846 0.010886 0.00162201 0.00315157 0.00598765 0.0108273 0.00386001 0.00750977 0.0142624 0.0257977 0.00160919 0.00223564 0.0029841 0.0038382 0.01087 0.0150907 0.0201489 0.0259067 0.00320644 0.00564627 0.00949144 0.0153899 0.0108138 0.019033 0.0319997 0.0518788 0.00321174 0.00503061 0.00752846 0.010886 0.0153317 0.0239955 0.0359206 0.0519251 0.0108138 0.019033 0.0319997 0.0518788 0.0257674 0.0453391 0.0762348 0.123584 0.01087 0.0150907 0.0201489 0.0259067 0.0518618 0.071992 0.0961267 0.12359 0.000473249 0.000746251 0.00111404 0.00161493 0.00321123 0.00503085 0.00752825 0.0108865 0.000481795 0.000934567 0.00177641 0.00321105 0.00162158 0.00315177 0.00598747 0.0108277 0.00321123 0.00503085 0.00752825 0.0108865 0.0153303 0.0239962 0.03592 0.0519266 0.0032069 0.00564607 0.00949164 0.0153895 0.0108149 0.0190325 0.0320002 0.0518778 0.00160909 0.00223568 0.00298405 0.00383828 0.0108699 0.0150907 0.0201488 0.0259068 0.00162158 0.00315177 0.00598747 0.0108277 0.00385946 0.00751 0.0142622 0.0257982 0.0108699 0.0150907 0.0201488 0.0259068 0.0518617 0.071992 0.0961267 0.12359 0.0108149 0.0190325 0.0320002 0.0518778 0.025769 0.0453384 0.0762355 0.123582 0.0153303 0.0239962 0.03592 0.0519266 0.0517018 0.0808877 0.121104 0.175037 0.0153317 0.0239955 0.0359206 0.0519251 0.0517049 0.0808863 0.121105 0.175034 0.0517018 0.0808877 0.121104 0.175037 0.123195 0.192684 0.288514 0.416958 0.0518618 0.071992 0.0961267 0.12359 0.174846 0.242698 0.324069 0.416644 0.0518617 0.071992 0.0961267 0.12359 0.174846 0.242698 0.324069 0.416644 0.0517049 0.0808863 0.121105 0.175034 0.1232 0.192682 0.288516 0.416954 0.174846 0.242698 0.324069 0.416644 0.416542 0.578169 0.772025 0.99255 0.174846 0.242698 0.324069 0.416644 0.416541 0.578169 0.772025 0.99255 0.00386001 0.00750977 0.0142624 0.0257977 0.00649473 0.0126438 0.0240084 0.043432 0.00384446 0.00473859 0.00564494 0.00644865 0.025926 0.0320039 0.0380974 0.043565 0.00649473 0.0126438 0.0240084 0.043432 0.00772561 0.0150413 0.0285601 0.0516668 0.006463 0.00710752 0.00753738 0.00767249 0.0436081 0.0479953 0.0508754 0.0518233 0.0257674 0.0453391 0.0762348 0.123584 0.0433825 0.0763232 0.128338 0.20804 0.025926 0.0320039 0.0380974 0.043565 0.123667 0.152691 0.181744 0.207856 0.0433825 0.0763232 0.128338 0.20804 0.0516082 0.0907932 0.152671 0.247482 0.0436081 0.0479953 0.0508754 0.0518233 0.208026 0.22898 0.242706 0.247251 0.00772561 0.0150413 0.0285601 0.0516668 0.00649676 0.012643 0.0240093 0.0434298 0.00767252 0.00753735 0.00710751 0.00646297 0.0518234 0.0508754 0.0479953 0.043608 0.00649676 0.012643 0.0240093 0.0434298 0.00386263 0.00750874 0.0142635 0.0257949 0.00644851 0.00564498 0.00473851 0.0038446 0.0435648 0.0380975 0.0320038 0.0259262 0.0516082 0.0907932 0.152671 0.247482 0.0433795 0.0763244 0.128337 0.208042 0.0518234 0.0508754 0.0479953 0.043608 0.247251 0.242705 0.22898 0.208026 0.0433795 0.0763244 0.128337 0.208042 0.0257636 0.0453407 0.0762334 0.123587 0.0435648 0.0380975 0.0320038 0.0259262 0.207856 0.181744 0.15269 0.123668 0.123195 0.192684 0.288514 0.416958 0.207413 0.32436 0.485703 0.701897 0.123667 0.152691 0.181744 0.207856 0.416874 0.514772 0.612684 0.700767 0.207413 0.32436 0.485703 0.701897 0.24674 0.385854 0.57779 0.834968 0.208026 0.22898 0.242706 0.247251 0.701273 0.771958 0.818202 0.833571 0.416542 0.578169 0.772025 0.99255 0.701228 0.973302 1.29965 1.67088 0.416874 0.514772 0.612684 0.700767 0.993059 1.22635 1.45956 1.66947 0.701228 0.973302 1.29965 1.67088 0.834176 1.15783 1.54606 1.98766 0.701273 0.771958 0.818202 0.833571 1.67058 1.83904 1.94916 1.98584 0.24674 0.385854 0.57779 0.834968 0.207399 0.324366 0.485697 0.701912 0.247251 0.242705 0.22898 0.208026 0.833572 0.818201 0.771959 0.701272 0.207399 0.324366 0.485697 0.701912 0.123177 0.192692 0.288506 0.416977 0.207856 0.181744 0.15269 0.123668 0.700766 0.612684 0.514771 0.416876 0.834176 1.15783 1.54606 1.98766 0.701222 0.973304 1.29965 1.67089 0.833572 0.818201 0.771959 0.701272 1.98584 1.94916 1.83904 1.67058 0.701222 0.973304 1.29965 1.67089 0.416534 0.578172 0.772022 0.992559 0.700766 0.612684 0.514771 0.416876 1.66947 1.45956 1.22635 0.993062 0.00384508 0.00473828 0.0056452 0.00644802 0.0259269 0.0320035 0.0380977 0.0435641 0.00385946 0.00751 0.0142622 0.0257982 0.00649449 0.0126439 0.0240083 0.0434322 0.0259269 0.0320035 0.0380977 0.0435641 0.12367 0.15269 0.181745 0.207854 0.025769 0.0453384 0.0762355 0.123582 0.0433841 0.0763225 0.128339 0.208038 0.00646339 0.00710733 0.00753754 0.00767213 0.0436086 0.0479951 0.0508756 0.0518228 0.00649449 0.0126439 0.0240083 0.0434322 0.00772603 0.0150411 0.0285603 0.0516664 0.0436086 0.0479951 0.0508756 0.0518228 0.208027 0.228979 0.242706 0.24725 0.0433841 0.0763225 0.128339 0.208038 0.051609 0.0907928 0.152671 0.247481 0.12367 0.15269 0.181745 0.207854 0.41688 0.514769 0.612686 0.700762 0.1232 0.192682 0.288516 0.416954 0.207417 0.324358 0.485705 0.701893 0.41688 0.514769 0.612686 0.700762 0.993068 1.22635 1.45956 1.66946 0.416541 0.578169 0.772025 0.99255 0.701226 0.973303 1.29965 1.67088 0.208027 0.228979 0.242706 0.24725 0.701275 0.771957 0.818203 0.833569 0.207417 0.324358 0.485705 0.701893 0.24674 0.385855 0.57779 0.834969 0.701275 0.771957 0.818203 0.833569 1.67058 1.83903 1.94916 1.98583 0.701226 0.973303 1.29965 1.67088 0.834173 1.15783 1.54606 1.98767 0.0076721 0.00753757 0.00710734 0.00646341 0.0518227 0.0508757 0.047995 0.0436087 0.00772603 0.0150411 0.0285603 0.0516664 0.00649774 0.0126426 0.0240097 0.0434289 0.0518227 0.0508757 0.047995 0.0436087 0.247249 0.242706 0.228979 0.208028 0.051609 0.0907928 0.152671 0.247481 0.0433792 0.0763245 0.128337 0.208043 0.00644817 0.00564515 0.00473837 0.00384493 0.0435644 0.0380977 0.0320036 0.0259266 0.00649774 0.0126426 0.0240097 0.0434289 0.00386367 0.00750827 0.014264 0.0257939 0.0435644 0.0380977 0.0320036 0.0259266 0.207854 0.181745 0.15269 0.123669 0.0433792 0.0763245 0.128337 0.208043 0.0257627 0.045341 0.076233 0.123588 0.247249 0.242706 0.228979 0.208028 0.833567 0.818204 0.771956 0.701277 0.24674 0.385855 0.57779 0.834969 0.207395 0.324367 0.485695 0.701916 0.833567 0.818204 0.771956 0.701277 1.98583 1.94916 1.83903 1.67059 0.834173 1.15783 1.54606 1.98767 0.701218 0.973306 1.29965 1.67089 0.207854 0.181745 0.15269 0.123669 0.700763 0.612685 0.51477 0.416878 0.207395 0.324367 0.485695 0.701916 0.123171 0.192694 0.288504 0.416982 0.700763 0.612685 0.51477 0.416878 1.66946 1.45956 1.22635 0.993065 0.701218 0.973306 1.29965 1.67089 0.416531 0.578173 0.77202 0.992562 0.993068 1.22635 1.45956 1.66946 1.67172 2.06449 2.45705 2.81047 0.993059 1.22635 1.45956 1.66947 1.67171 2.06449 2.45705 2.81047 1.67172 2.06449 2.45705 2.81047 1.98866 2.4559 2.92289 3.34331 1.67058 1.83904 1.94916 1.98584 2.81227 3.0959 3.28126 3.34305 1.67058 1.83903 1.94916 1.98583 2.81227 3.0959 3.28126 3.34305 1.67171 2.06449 2.45705 2.81047 1.98865 2.4559 2.92288 3.34332 2.81227 3.0959 3.28126 3.34305 3.34546 3.68287 3.90337 3.97687 2.81227 3.0959 3.28126 3.34305 3.34546 3.68286 3.90337 3.97687 1.98866 2.4559 2.92289 3.34331 1.67175 2.06448 2.45706 2.81043 1.98584 1.94916 1.83904 1.67058 3.34305 3.28126 3.0959 2.81227 1.67175 2.06448 2.45706 2.81043 0.993108 1.22633 1.45958 1.66942 1.66947 1.45956 1.22635 0.993062 2.81047 2.45705 2.06449 1.67171 3.34546 3.68287 3.90337 3.97687 2.8123 3.09589 3.28128 3.34302 3.34305 3.28126 3.0959 2.81227 3.97687 3.90337 3.68287 3.34546 2.8123 3.09589 3.28128 3.34302 1.67062 1.83902 1.94918 1.9858 2.81047 2.45705 2.06449 1.67171 3.34332 2.92289 2.4559 1.98866 1.98583 1.94916 1.83903 1.67059 3.34305 3.28127 3.0959 2.81228 1.98865 2.4559 2.92288 3.34332 1.67175 2.06447 2.45706 2.81043 3.34305 3.28127 3.0959 2.81228 3.97687 3.90337 3.68286 3.34546 3.34546 3.68286 3.90337 3.97687 2.81231 3.09589 3.28128 3.34301 1.66946 1.45956 1.22635 0.993065 2.81047 2.45705 2.06449 1.67171 1.67175 2.06447 2.45706 2.81043 0.993115 1.22633 1.45958 1.66941 2.81047 2.45705 2.06449 1.67171 3.34332 2.92288 2.4559 1.98865 2.81231 3.09589 3.28128 3.34301 1.67063 1.83902 1.94918 1.98579 3.97687 3.90337 3.68286 3.34546 3.34302 3.28128 3.09589 2.8123 3.97687 3.90337 3.68287 3.34546 3.34302 3.28128 3.09589 2.8123 3.34302 3.28128 3.09589 2.8123 1.9858 1.94918 1.83902 1.67062 3.34332 2.92289 2.4559 1.98866 2.81043 2.45706 2.06447 1.67175 3.34332 2.92288 2.4559 1.98865 2.81044 2.45706 2.06448 1.67175 3.34302 3.28128 3.09589 2.8123 1.98579 1.94918 1.83902 1.67062 2.81044 2.45706 2.06448 1.67175 1.66942 1.45958 1.22633 0.993108 2.81043 2.45706 2.06447 1.67175 1.66942 1.45958 1.22633 0.993114 0.00386263 0.00750874 0.0142635 0.0257949 0.00162392 0.00315083 0.00598847 0.0108254 0.0038382 0.0029841 0.00223565 0.0016092 0.0259067 0.0201489 0.0150907 0.0108701 0.00162392 0.00315083 0.00598847 0.0108254 0.000483061 0.000934314 0.00177732 0.00321063 0.00161471 0.00111416 0.00074619 0.000473592 0.0108863 0.00752849 0.00503101 0.00321228 0.0257636 0.0453407 0.0762334 0.123587 0.0108111 0.0190341 0.0319988 0.0518817 0.0259067 0.0201489 0.0150907 0.0108701 0.12359 0.0961269 0.0719919 0.0518623 0.0108111 0.0190341 0.0319988 0.0518817 0.00320585 0.00564817 0.00949319 0.0153949 0.0108863 0.00752849 0.00503101 0.00321228 0.0519259 0.0359209 0.0239972 0.0153347 0.000483061 0.000934314 0.00177732 0.00321063 0.000103283 0.000198628 0.000378447 0.000682785 0.000478569 0.000294703 0.000176263 0.000100475 0.00322735 0.00199112 0.00118841 0.000681809 0.000103283 0.000198628 0.000378447 0.000682785 3.03791e-05 5.78364e-05 0.000110512 0.000198941 0.000101241 5.8571e-05 3.62851e-05 2.9713e-05 0.000684276 0.000395058 0.000245329 0.000199761 0.00320585 0.00564817 0.00949319 0.0153949 0.00068156 0.00120229 0.00201995 0.00327689 0.00322735 0.00199112 0.00118841 0.000681809 0.0153945 0.00950013 0.00566853 0.00325498 0.00068156 0.00120229 0.00201995 0.00327689 0.000198479 0.000350892 0.000589112 0.000956294 0.000684276 0.000395058 0.000245329 0.000199761 0.00326498 0.00188445 0.00117061 0.000952436 0.123177 0.192692 0.288506 0.416977 0.0516883 0.0808934 0.121098 0.175051 0.12359 0.0961269 0.0719919 0.0518623 0.416643 0.324069 0.242698 0.174847 0.0516883 0.0808934 0.121098 0.175051 0.0153272 0.0240046 0.0359259 0.0519459 0.0519259 0.0359209 0.0239972 0.0153347 0.175036 0.121106 0.0808918 0.0517156 0.416534 0.578172 0.772022 0.992559 0.174841 0.242701 0.324067 0.416652 0.416643 0.324069 0.242698 0.174847 0.992549 0.772026 0.578169 0.416544 0.174841 0.242701 0.324067 0.416652 0.0518713 0.0720105 0.0961485 0.123623 0.175036 0.121106 0.0808918 0.0517156 0.416957 0.288519 0.192695 0.123227 0.0153272 0.0240046 0.0359259 0.0519459 0.0032585 0.00510986 0.00764393 0.0110579 0.0153945 0.00950013 0.00566853 0.00325498 0.0518941 0.0320291 0.0191079 0.0109776 0.0032585 0.00510986 0.00764393 0.0110579 0.000948906 0.00149138 0.00222915 0.00322746 0.00326498 0.00188445 0.00117061 0.000952436 0.011008 0.00635243 0.00394682 0.00320981 0.0518713 0.0720105 0.0961485 0.123623 0.0110374 0.0153251 0.0204608 0.0263096 0.0518941 0.0320291 0.0191079 0.0109776 0.12362 0.0763049 0.0455177 0.0261578 0.0110374 0.0153251 0.0204608 0.0263096 0.00321913 0.00447093 0.0059685 0.00767569 0.011008 0.00635243 0.00394682 0.00320981 0.0262254 0.0151327 0.00940307 0.00764524 3.03791e-05 5.78364e-05 0.000110512 0.000198941 0.0001034 0.000198574 0.000378499 0.000682667 2.97203e-05 3.62818e-05 5.8574e-05 0.000101232 0.000199781 0.000245321 0.000395069 0.000684258 0.0001034 0.000198574 0.000378499 0.000682667 0.000483408 0.000934154 0.00177747 0.00321028 0.000100469 0.00017626 0.000294695 0.000478569 0.000681819 0.00118841 0.00199113 0.00322735 0.000198479 0.000350892 0.000589112 0.000956294 0.000681414 0.00120236 0.00201989 0.00327704 0.000199781 0.000245321 0.000395069 0.000684258 0.000952509 0.00117058 0.00188448 0.00326491 0.000681414 0.00120236 0.00201989 0.00327704 0.00320544 0.00564835 0.00949301 0.0153954 0.000681819 0.00118841 0.00199113 0.00322735 0.00325503 0.00566851 0.00950015 0.0153945 0.000483408 0.000934154 0.00177747 0.00321028 0.00162464 0.0031505 0.00598877 0.0108246 0.000473481 0.000746224 0.0011141 0.00161481 0.00321212 0.00503107 0.00752841 0.0108864 0.00162464 0.0031505 0.00598877 0.0108246 0.00386367 0.00750827 0.014264 0.0257939 0.00160909 0.00223568 0.00298404 0.00383829 0.0108699 0.0150908 0.0201488 0.0259068 0.00320544 0.00564835 0.00949301 0.0153954 0.0108103 0.0190345 0.0319985 0.0518824 0.00321212 0.00503107 0.00752841 0.0108864 0.0153342 0.0239974 0.0359206 0.0519264 0.0108103 0.0190345 0.0319985 0.0518824 0.0257627 0.045341 0.076233 0.123588 0.0108699 0.0150908 0.0201488 0.0259068 0.0518616 0.0719922 0.0961265 0.123591 0.000948906 0.00149138 0.00222915 0.00322746 0.00325784 0.00511016 0.00764364 0.0110585 0.000952509 0.00117058 0.00188448 0.00326491 0.00321 0.00394673 0.00635252 0.0110078 0.00325784 0.00511016 0.00764364 0.0110585 0.0153253 0.0240055 0.035925 0.0519478 0.00325503 0.00566851 0.00950015 0.0153945 0.0109778 0.0191079 0.0320292 0.0518939 0.00321913 0.00447093 0.0059685 0.00767569 0.0110371 0.0153252 0.0204606 0.0263098 0.00321 0.00394673 0.00635252 0.0110078 0.00764562 0.0094029 0.0151328 0.026225 0.0110371 0.0153252 0.0204606 0.0263098 0.0518705 0.0720109 0.0961482 0.123624 0.0109778 0.0191079 0.0320292 0.0518939 0.0261582 0.0455175 0.0763051 0.12362 0.0153253 0.0240055 0.035925 0.0519478 0.0516844 0.0808951 0.121097 0.175055 0.0153342 0.0239974 0.0359206 0.0519264 0.0517146 0.0808923 0.121105 0.175037 0.0516844 0.0808951 0.121097 0.175055 0.123171 0.192694 0.288504 0.416982 0.0518616 0.0719922 0.0961265 0.123591 0.174846 0.242699 0.324068 0.416645 0.0518705 0.0720109 0.0961482 0.123624 0.174839 0.242702 0.324067 0.416654 0.0517146 0.0808923 0.121105 0.175037 0.123225 0.192696 0.288518 0.416959 0.174839 0.242702 0.324067 0.416654 0.416531 0.578173 0.77202 0.992562 0.174846 0.242699 0.324068 0.416645 0.416541 0.57817 0.772025 0.992552 0.993108 1.22633 1.45958 1.66942 0.416911 0.51476 0.6127 0.700735 0.992549 0.772026 0.578169 0.416544 1.67088 1.29965 0.973302 0.701231 0.416911 0.51476 0.6127 0.700735 0.123714 0.152721 0.181794 0.207889 0.416957 0.288519 0.192695 0.123227 0.701899 0.485711 0.324379 0.207463 1.67062 1.83902 1.94918 1.9858 0.701303 0.77195 0.818217 0.833545 1.67088 1.29965 0.973302 0.701231 1.98767 1.54606 1.15783 0.834179 0.701303 0.77195 0.818217 0.833545 0.20809 0.229029 0.24277 0.247296 0.701899 0.485711 0.324379 0.207463 0.834973 0.577798 0.385879 0.246797 0.123714 0.152721 0.181794 0.207889 0.0263341 0.0324975 0.0386906 0.0442343 0.12362 0.0763049 0.0455177 0.0261578 0.208101 0.128456 0.0766237 0.0440396 0.0263341 0.0324975 0.0386906 0.0442343 0.00768548 0.00947873 0.0112883 0.0129007 0.0262254 0.0151327 0.00940307 0.00764524 0.0441497 0.0254744 0.01583 0.0128692 0.20809 0.229029 0.24277 0.247296 0.0442893 0.0487373 0.0516663 0.0526216 0.208101 0.128456 0.0766237 0.0440396 0.247555 0.152811 0.0911509 0.0523893 0.0442893 0.0487373 0.0516663 0.0526216 0.0129229 0.0142164 0.0150734 0.015348 0.0441497 0.0254744 0.01583 0.0128692 0.0525201 0.0303042 0.0188314 0.0153091 1.9858 1.94918 1.83902 1.67062 0.833544 0.818217 0.771949 0.701304 1.98767 1.54606 1.15783 0.834179 1.67089 1.29965 0.973306 0.701223 0.833544 0.818217 0.771949 0.701304 0.247296 0.24277 0.229029 0.20809 0.834973 0.577798 0.385879 0.246797 0.701918 0.485703 0.324387 0.207444 1.66942 1.45958 1.22633 0.993108 0.700735 0.6127 0.514759 0.416911 1.67089 1.29965 0.973306 0.701223 0.99256 0.772021 0.578173 0.416534 0.700735 0.6127 0.514759 0.416911 0.207889 0.181795 0.15272 0.123714 0.701918 0.485703 0.324387 0.207444 0.416983 0.288509 0.192705 0.123201 0.247296 0.24277 0.229029 0.20809 0.0526215 0.0516664 0.0487372 0.0442894 0.247555 0.152811 0.0911509 0.0523893 0.208105 0.128454 0.0766255 0.0440352 0.0526215 0.0516664 0.0487372 0.0442894 0.015348 0.0150734 0.0142164 0.0129229 0.0525201 0.0303042 0.0188314 0.0153091 0.0441485 0.0254749 0.0158296 0.0128702 0.207889 0.181795 0.15272 0.123714 0.0442341 0.0386906 0.0324974 0.0263343 0.208105 0.128454 0.0766255 0.0440352 0.123625 0.0763027 0.0455199 0.0261521 0.0442341 0.0386906 0.0324974 0.0263343 0.0129008 0.0112883 0.00947873 0.00768548 0.0441485 0.0254749 0.0158296 0.0128702 0.0262239 0.0151333 0.00940253 0.00764655 0.00768548 0.00947873 0.0112883 0.0129007 0.0263352 0.0324971 0.038691 0.0442333 0.00764562 0.0094029 0.0151328 0.026225 0.0128697 0.0158298 0.0254746 0.0441492 0.0263352 0.0324971 0.038691 0.0442333 0.123717 0.152719 0.181796 0.207886 0.0261582 0.0455175 0.0763051 0.12362 0.0440402 0.0766234 0.128456 0.2081 0.0129229 0.0142164 0.0150734 0.015348 0.0442901 0.0487369 0.0516667 0.0526208 0.0128697 0.0158298 0.0254746 0.0441492 0.0153096 0.0188311 0.0303045 0.0525196 0.0442901 0.0487369 0.0516667 0.0526208 0.208092 0.229028 0.242771 0.247294 0.0440402 0.0766234 0.128456 0.2081 0.0523901 0.0911506 0.152811 0.247554 0.123717 0.152719 0.181796 0.207886 0.416916 0.514757 0.612702 0.70073 0.123225 0.192696 0.288518 0.416959 0.207462 0.32438 0.48571 0.7019 0.416916 0.514757 0.612702 0.70073 0.993115 1.22633 1.45958 1.66941 0.416541 0.57817 0.772025 0.992552 0.701227 0.973304 1.29965 1.67088 0.208092 0.229028 0.242771 0.247294 0.701308 0.771947 0.818219 0.83354 0.207462 0.32438 0.48571 0.7019 0.246796 0.385879 0.577798 0.834974 0.701308 0.771947 0.818219 0.83354 1.67063 1.83902 1.94918 1.98579 0.701227 0.973304 1.29965 1.67088 0.834176 1.15783 1.54606 1.98767 0.015348 0.0150734 0.0142164 0.0129229 0.0526208 0.0516666 0.048737 0.04429 0.0153096 0.0188311 0.0303045 0.0525196 0.0128706 0.0158294 0.025475 0.0441482 0.0526208 0.0516666 0.048737 0.04429 0.247294 0.24277 0.229028 0.208092 0.0523901 0.0911506 0.152811 0.247554 0.0440359 0.0766252 0.128455 0.208104 0.0129008 0.0112883 0.00947873 0.00768548 0.0442335 0.0386909 0.0324972 0.026335 0.0128706 0.0158294 0.025475 0.0441482 0.00764673 0.00940245 0.0151333 0.0262237 0.0442335 0.0386909 0.0324972 0.026335 0.207887 0.181795 0.152719 0.123716 0.0440359 0.0766252 0.128455 0.208104 0.0261526 0.0455197 0.0763029 0.123625 0.247294 0.24277 0.229028 0.208092 0.833541 0.818218 0.771948 0.701307 0.246796 0.385879 0.577798 0.834974 0.207444 0.324387 0.485703 0.701918 0.833541 0.818218 0.771948 0.701307 1.98579 1.94918 1.83902 1.67062 0.834176 1.15783 1.54606 1.98767 0.701221 0.973306 1.29965 1.67089 0.207887 0.181795 0.152719 0.123716 0.700731 0.612702 0.514758 0.416915 0.207444 0.324387 0.485703 0.701918 0.123203 0.192705 0.288509 0.416982 0.700731 0.612702 0.514758 0.416915 1.66942 1.45958 1.22633 0.993114 0.701221 0.973306 1.29965 1.67089 0.416533 0.578173 0.772021 0.992561 0.00386367 0.00750827 0.014264 0.0257939 0.00649774 0.0126426 0.0240097 0.0434289 0.00384493 0.00473837 0.00564515 0.00644817 0.0259266 0.0320036 0.0380977 0.0435644 0.00649774 0.0126426 0.0240097 0.0434289 0.00772603 0.0150411 0.0285603 0.0516664 0.00646341 0.00710734 0.00753757 0.0076721 0.0436087 0.047995 0.0508757 0.0518227 0.0257627 0.045341 0.076233 0.123588 0.0433792 0.0763245 0.128337 0.208043 0.0259266 0.0320036 0.0380977 0.0435644 0.123669 0.15269 0.181745 0.207854 0.0433792 0.0763245 0.128337 0.2