# vtk DataFile Version 3.0
#This file was generated by the deal.II library on 2020/8/22 at 21:53:44
ASCII
DATASET UNSTRUCTURED_GRID

POINTS 21136 double
0.5 0.5 0
1 0.5 0
0.5 1 0
1 1 0
0 0 0
0.25 0 0
0 0.25 0
0.25 0.25 0
0.25 0.25 0
0.5 0.25 0
0.25 0.5 0
0.5 0.5 0
0.75 0 0
1 0 0
0.75 0.25 0
1 0.25 0
0.5 0.25 0
0.75 0.25 0
0.5 0.5 0
0.75 0.5 0
0.75 0.25 0
1 0.25 0
0.75 0.5 0
1 0.5 0
0.25 0.5 0
0.5 0.5 0
0.25 0.75 0
0.5 0.75 0
0 0.75 0
0.25 0.75 0
0 1 0
0.25 1 0
0.25 0.75 0
0.5 0.75 0
0.25 1 0
0.5 1 0
-1 -0.25 0
-0.875 -0.25 0
-1 -0.125 0
-0.875 -0.125 0
-1 -0.125 0
-0.875 -0.125 0
-1 0 0
-0.875 0 0
-0.875 -0.125 0
-0.75 -0.125 0
-0.875 0 0
-0.75 0 0
-0.125 -0.25 0
0 -0.25 0
-0.125 -0.125 0
0 -0.125 0
-0.25 -0.125 0
-0.125 -0.125 0
-0.25 0 0
-0.125 0 0
-0.125 -0.125 0
0 -0.125 0
-0.125 0 0
0 0 0
-1 0 0
-0.875 0 0
-1 0.125 0
-0.875 0.125 0
-0.875 0 0
-0.75 0 0
-0.875 0.125 0
-0.75 0.125 0
-1 0.125 0
-0.875 0.125 0
-1 0.25 0
-0.875 0.25 0
-0.25 0 0
-0.125 0 0
-0.25 0.125 0
-0.125 0.125 0
-0.125 0 0
0 0 0
-0.125 0.125 0
0 0.125 0
-0.125 0.125 0
0 0.125 0
-0.125 0.25 0
0 0.25 0
-1 -1 0
-0.875 -1 0
-1 -0.875 0
-0.875 -0.875 0
-0.875 -1 0
-0.75 -1 0
-0.875 -0.875 0
-0.75 -0.875 0
-1 -0.875 0
-0.875 -0.875 0
-1 -0.75 0
-0.875 -0.75 0
-0.25 -1 0
-0.125 -1 0
-0.25 -0.875 0
-0.125 -0.875 0
-0.125 -1 0
0 -1 0
-0.125 -0.875 0
0 -0.875 0
-0.125 -0.875 0
0 -0.875 0
-0.125 -0.75 0
0 -0.75 0
0 -1 0
0.125 -1 0
0 -0.875 0
0.125 -0.875 0
0.125 -1 0
0.25 -1 0
0.125 -0.875 0
0.25 -0.875 0
0 -0.875 0
0.125 -0.875 0
0 -0.75 0
0.125 -0.75 0
0.75 -1 0
0.875 -1 0
0.75 -0.875 0
0.875 -0.875 0
0.875 -1 0
1 -1 0
0.875 -0.875 0
1 -0.875 0
0.875 -0.875 0
1 -0.875 0
0.875 -0.75 0
1 -0.75 0
0 -0.25 0
0.125 -0.25 0
0 -0.125 0
0.125 -0.125 0
0 -0.125 0
0.125 -0.125 0
0 0 0
0.125 0 0
0.125 -0.125 0
0.25 -0.125 0
0.125 0 0
0.25 0 0
0.875 -0.25 0
1 -0.25 0
0.875 -0.125 0
1 -0.125 0
0.75 -0.125 0
0.875 -0.125 0
0.75 0 0
0.875 0 0
0.875 -0.125 0
1 -0.125 0
0.875 0 0
1 0 0
-1 0.75 0
-0.875 0.75 0
-1 0.875 0
-0.875 0.875 0
-1 0.875 0
-0.875 0.875 0
-1 1 0
-0.875 1 0
-0.875 0.875 0
-0.75 0.875 0
-0.875 1 0
-0.75 1 0
-0.125 0.75 0
0 0.75 0
-0.125 0.875 0
0 0.875 0
-0.25 0.875 0
-0.125 0.875 0
-0.25 1 0
-0.125 1 0
-0.125 0.875 0
0 0.875 0
-0.125 1 0
0 1 0
0.25 0 0
0.375 0 0
0.25 0.125 0
0.375 0.125 0
0.375 0 0
0.5 0 0
0.375 0.125 0
0.5 0.125 0
0.25 0.125 0
0.375 0.125 0
0.25 0.25 0
0.375 0.25 0
0.375 0.125 0
0.5 0.125 0
0.375 0.25 0
0.5 0.25 0
0 0.25 0
0.125 0.25 0
0 0.375 0
0.125 0.375 0
0.125 0.25 0
0.25 0.25 0
0.125 0.375 0
0.25 0.375 0
0 0.375 0
0.125 0.375 0
0 0.5 0
0.125 0.5 0
0.125 0.375 0
0.25 0.375 0
0.125 0.5 0
0.25 0.5 0
0.5 0 0
0.625 0 0
0.5 0.125 0
0.625 0.125 0
0.625 0 0
0.75 0 0
0.625 0.125 0
0.75 0.125 0
0.5 0.125 0
0.625 0.125 0
0.5 0.25 0
0.625 0.25 0
0.625 0.125 0
0.75 0.125 0
0.625 0.25 0
0.75 0.25 0
0 0.5 0
0.125 0.5 0
0 0.625 0
0.125 0.625 0
0.125 0.5 0
0.25 0.5 0
0.125 0.625 0
0.25 0.625 0
0 0.625 0
0.125 0.625 0
0 0.75 0
0.125 0.75 0
0.125 0.625 0
0.25 0.625 0
0.125 0.75 0
0.25 0.75 0
-1 -0.5 0
-0.9375 -0.5 0
-1 -0.4375 0
-0.9375 -0.4375 0
-1 -0.4375 0
-0.9375 -0.4375 0
-1 -0.375 0
-0.9375 -0.375 0
-0.0625 -0.5 0
0 -0.5 0
-0.0625 -0.4375 0
0 -0.4375 0
-0.0625 -0.4375 0
0 -0.4375 0
-0.0625 -0.375 0
0 -0.375 0
-0.5 0 0
-0.4375 0 0
-0.5 0.0625 0
-0.4375 0.0625 0
-0.4375 0 0
-0.375 0 0
-0.4375 0.0625 0
-0.375 0.0625 0
-0.625 -0.0625 0
-0.5625 -0.0625 0
-0.625 0 0
-0.5625 0 0
-0.5625 -0.0625 0
-0.5 -0.0625 0
-0.5625 0 0
-0.5 0 0
-0.5 -0.0625 0
-0.4375 -0.0625 0
-0.5 0 0
-0.4375 0 0
-0.4375 -0.0625 0
-0.375 -0.0625 0
-0.4375 0 0
-0.375 0 0
-1 0.375 0
-0.9375 0.375 0
-1 0.4375 0
-0.9375 0.4375 0
-1 0.4375 0
-0.9375 0.4375 0
-1 0.5 0
-0.9375 0.5 0
-0.0625 0.375 0
0 0.375 0
-0.0625 0.4375 0
0 0.4375 0
-0.0625 0.4375 0
0 0.4375 0
-0.0625 0.5 0
0 0.5 0
-0.625 -1 0
-0.5625 -1 0
-0.625 -0.9375 0
-0.5625 -0.9375 0
-0.5625 -1 0
-0.5 -1 0
-0.5625 -0.9375 0
-0.5 -0.9375 0
-0.5 -1 0
-0.4375 -1 0
-0.5 -0.9375 0
-0.4375 -0.9375 0
-0.4375 -1 0
-0.375 -1 0
-0.4375 -0.9375 0
-0.375 -0.9375 0
0.375 -1 0
0.4375 -1 0
0.375 -0.9375 0
0.4375 -0.9375 0
0.4375 -1 0
0.5 -1 0
0.4375 -0.9375 0
0.5 -0.9375 0
0 -0.625 0
0.0625 -0.625 0
0 -0.5625 0
0.0625 -0.5625 0
0 -0.5625 0
0.0625 -0.5625 0
0 -0.5 0
0.0625 -0.5 0
0.9375 -0.625 0
1 -0.625 0
0.9375 -0.5625 0
1 -0.5625 0
0.9375 -0.5625 0
1 -0.5625 0
0.9375 -0.5 0
1 -0.5 0
0 -0.5 0
0.0625 -0.5 0
0 -0.4375 0
0.0625 -0.4375 0
0 -0.4375 0
0.0625 -0.4375 0
0 -0.375 0
0.0625 -0.375 0
0.375 -0.0625 0
0.4375 -0.0625 0
0.375 0 0
0.4375 0 0
0.4375 -0.0625 0
0.5 -0.0625 0
0.4375 0 0
0.5 0 0
0.9375 -0.5 0
1 -0.5 0
0.9375 -0.4375 0
1 -0.4375 0
0.9375 -0.4375 0
1 -0.4375 0
0.9375 -0.375 0
1 -0.375 0
0.5 -0.0625 0
0.5625 -0.0625 0
0.5 0 0
0.5625 0 0
0.5625 -0.0625 0
0.625 -0.0625 0
0.5625 0 0
0.625 0 0
-1 0.5 0
-0.9375 0.5 0
-1 0.5625 0
-0.9375 0.5625 0
-1 0.5625 0
-0.9375 0.5625 0
-1 0.625 0
-0.9375 0.625 0
-0.625 0.9375 0
-0.5625 0.9375 0
-0.625 1 0
-0.5625 1 0
-0.5625 0.9375 0
-0.5 0.9375 0
-0.5625 1 0
-0.5 1 0
-0.0625 0.5 0
0 0.5 0
-0.0625 0.5625 0
0 0.5625 0
-0.0625 0.5625 0
0 0.5625 0
-0.0625 0.625 0
0 0.625 0
-0.5 0.9375 0
-0.4375 0.9375 0
-0.5 1 0
-0.4375 1 0
-0.4375 0.9375 0
-0.375 0.9375 0
-0.4375 1 0
-0.375 1 0
-0.625 0 0
-0.5625 0 0
-0.625 0.0625 0
-0.5625 0.0625 0
-0.5625 0 0
-0.5 0 0
-0.5625 0.0625 0
-0.5 0.0625 0
-1 -0.625 0
-0.9375 -0.625 0
-1 -0.5625 0
-0.9375 -0.5625 0
-1 -0.5625 0
-0.9375 -0.5625 0
-1 -0.5 0
-0.9375 -0.5 0
-0.0625 -0.625 0
0 -0.625 0
-0.0625 -0.5625 0
0 -0.5625 0
-0.0625 -0.5625 0
0 -0.5625 0
-0.0625 -0.5 0
0 -0.5 0
0.5 -1 0
0.5625 -1 0
0.5 -0.9375 0
0.5625 -0.9375 0
0.5625 -1 0
0.625 -1 0
0.5625 -0.9375 0
0.625 -0.9375 0
-1 -0.375 0
-0.9375 -0.375 0
-1 -0.3125 0
-0.9375 -0.3125 0
-0.9375 -0.375 0
-0.875 -0.375 0
-0.9375 -0.3125 0
-0.875 -0.3125 0
-1 -0.3125 0
-0.9375 -0.3125 0
-1 -0.25 0
-0.9375 -0.25 0
-0.9375 -0.3125 0
-0.875 -0.3125 0
-0.9375 -0.25 0
-0.875 -0.25 0
-0.125 -0.375 0
-0.0625 -0.375 0
-0.125 -0.3125 0
-0.0625 -0.3125 0
-0.0625 -0.375 0
0 -0.375 0
-0.0625 -0.3125 0
0 -0.3125 0
-0.125 -0.3125 0
-0.0625 -0.3125 0
-0.125 -0.25 0
-0.0625 -0.25 0
-0.0625 -0.3125 0
0 -0.3125 0
-0.0625 -0.25 0
0 -0.25 0
-0.375 0 0
-0.3125 0 0
-0.375 0.0625 0
-0.3125 0.0625 0
-0.3125 0 0
-0.25 0 0
-0.3125 0.0625 0
-0.25 0.0625 0
-0.375 0.0625 0
-0.3125 0.0625 0
-0.375 0.125 0
-0.3125 0.125 0
-0.3125 0.0625 0
-0.25 0.0625 0
-0.3125 0.125 0
-0.25 0.125 0
-0.75 -0.125 0
-0.6875 -0.125 0
-0.75 -0.0625 0
-0.6875 -0.0625 0
-0.6875 -0.125 0
-0.625 -0.125 0
-0.6875 -0.0625 0
-0.625 -0.0625 0
-0.75 -0.0625 0
-0.6875 -0.0625 0
-0.75 0 0
-0.6875 0 0
-0.6875 -0.0625 0
-0.625 -0.0625 0
-0.6875 0 0
-0.625 0 0
-0.375 -0.125 0
-0.3125 -0.125 0
-0.375 -0.0625 0
-0.3125 -0.0625 0
-0.3125 -0.125 0
-0.25 -0.125 0
-0.3125 -0.0625 0
-0.25 -0.0625 0
-0.375 -0.0625 0
-0.3125 -0.0625 0
-0.375 0 0
-0.3125 0 0
-0.3125 -0.0625 0
-0.25 -0.0625 0
-0.3125 0 0
-0.25 0 0
-1 0.25 0
-0.9375 0.25 0
-1 0.3125 0
-0.9375 0.3125 0
-0.9375 0.25 0
-0.875 0.25 0
-0.9375 0.3125 0
-0.875 0.3125 0
-1 0.3125 0
-0.9375 0.3125 0
-1 0.375 0
-0.9375 0.375 0
-0.9375 0.3125 0
-0.875 0.3125 0
-0.9375 0.375 0
-0.875 0.375 0
-0.125 0.25 0
-0.0625 0.25 0
-0.125 0.3125 0
-0.0625 0.3125 0
-0.0625 0.25 0
0 0.25 0
-0.0625 0.3125 0
0 0.3125 0
-0.125 0.3125 0
-0.0625 0.3125 0
-0.125 0.375 0
-0.0625 0.375 0
-0.0625 0.3125 0
0 0.3125 0
-0.0625 0.375 0
0 0.375 0
-0.75 -1 0
-0.6875 -1 0
-0.75 -0.9375 0
-0.6875 -0.9375 0
-0.6875 -1 0
-0.625 -1 0
-0.6875 -0.9375 0
-0.625 -0.9375 0
-0.75 -0.9375 0
-0.6875 -0.9375 0
-0.75 -0.875 0
-0.6875 -0.875 0
-0.6875 -0.9375 0
-0.625 -0.9375 0
-0.6875 -0.875 0
-0.625 -0.875 0
-0.375 -1 0
-0.3125 -1 0
-0.375 -0.9375 0
-0.3125 -0.9375 0
-0.3125 -1 0
-0.25 -1 0
-0.3125 -0.9375 0
-0.25 -0.9375 0
-0.375 -0.9375 0
-0.3125 -0.9375 0
-0.375 -0.875 0
-0.3125 -0.875 0
-0.3125 -0.9375 0
-0.25 -0.9375 0
-0.3125 -0.875 0
-0.25 -0.875 0
0.25 -1 0
0.3125 -1 0
0.25 -0.9375 0
0.3125 -0.9375 0
0.3125 -1 0
0.375 -1 0
0.3125 -0.9375 0
0.375 -0.9375 0
0.25 -0.9375 0
0.3125 -0.9375 0
0.25 -0.875 0
0.3125 -0.875 0
0.3125 -0.9375 0
0.375 -0.9375 0
0.3125 -0.875 0
0.375 -0.875 0
0 -0.75 0
0.0625 -0.75 0
0 -0.6875 0
0.0625 -0.6875 0
0.0625 -0.75 0
0.125 -0.75 0
0.0625 -0.6875 0
0.125 -0.6875 0
0 -0.6875 0
0.0625 -0.6875 0
0 -0.625 0
0.0625 -0.625 0
0.0625 -0.6875 0
0.125 -0.6875 0
0.0625 -0.625 0
0.125 -0.625 0
0.875 -0.75 0
0.9375 -0.75 0
0.875 -0.6875 0
0.9375 -0.6875 0
0.9375 -0.75 0
1 -0.75 0
0.9375 -0.6875 0
1 -0.6875 0
0.875 -0.6875 0
0.9375 -0.6875 0
0.875 -0.625 0
0.9375 -0.625 0
0.9375 -0.6875 0
1 -0.6875 0
0.9375 -0.625 0
1 -0.625 0
0 -0.375 0
0.0625 -0.375 0
0 -0.3125 0
0.0625 -0.3125 0
0.0625 -0.375 0
0.125 -0.375 0
0.0625 -0.3125 0
0.125 -0.3125 0
0 -0.3125 0
0.0625 -0.3125 0
0 -0.25 0
0.0625 -0.25 0
0.0625 -0.3125 0
0.125 -0.3125 0
0.0625 -0.25 0
0.125 -0.25 0
0.25 -0.125 0
0.3125 -0.125 0
0.25 -0.0625 0
0.3125 -0.0625 0
0.3125 -0.125 0
0.375 -0.125 0
0.3125 -0.0625 0
0.375 -0.0625 0
0.25 -0.0625 0
0.3125 -0.0625 0
0.25 0 0
0.3125 0 0
0.3125 -0.0625 0
0.375 -0.0625 0
0.3125 0 0
0.375 0 0
0.875 -0.375 0
0.9375 -0.375 0
0.875 -0.3125 0
0.9375 -0.3125 0
0.9375 -0.375 0
1 -0.375 0
0.9375 -0.3125 0
1 -0.3125 0
0.875 -0.3125 0
0.9375 -0.3125 0
0.875 -0.25 0
0.9375 -0.25 0
0.9375 -0.3125 0
1 -0.3125 0
0.9375 -0.25 0
1 -0.25 0
0.625 -0.125 0
0.6875 -0.125 0
0.625 -0.0625 0
0.6875 -0.0625 0
0.6875 -0.125 0
0.75 -0.125 0
0.6875 -0.0625 0
0.75 -0.0625 0
0.625 -0.0625 0
0.6875 -0.0625 0
0.625 0 0
0.6875 0 0
0.6875 -0.0625 0
0.75 -0.0625 0
0.6875 0 0
0.75 0 0
-1 0.625 0
-0.9375 0.625 0
-1 0.6875 0
-0.9375 0.6875 0
-0.9375 0.625 0
-0.875 0.625 0
-0.9375 0.6875 0
-0.875 0.6875 0
-1 0.6875 0
-0.9375 0.6875 0
-1 0.75 0
-0.9375 0.75 0
-0.9375 0.6875 0
-0.875 0.6875 0
-0.9375 0.75 0
-0.875 0.75 0
-0.75 0.875 0
-0.6875 0.875 0
-0.75 0.9375 0
-0.6875 0.9375 0
-0.6875 0.875 0
-0.625 0.875 0
-0.6875 0.9375 0
-0.625 0.9375 0
-0.75 0.9375 0
-0.6875 0.9375 0
-0.75 1 0
-0.6875 1 0
-0.6875 0.9375 0
-0.625 0.9375 0
-0.6875 1 0
-0.625 1 0
-0.125 0.625 0
-0.0625 0.625 0
[...]
POINT_DATA 21136
VECTORS gradient double
0.000203133 0.000187596 0
0.000211338 1.04312e-05 0
1.75552e-05 0.000214591 0
-6.85921e-06 1.21779e-06 0
0.00474776 0.00469966 0
-0.0049294 0.00762199 0
0.00768358 -0.00514357 0
-0.00222404 -0.0023498 0
0.00123242 0.00114699 0
0.000609926 -0.000356433 0
-0.000226109 0.000556055 0
0.000256411 0.000217472 0
0.00792839 0.0100446 0
-0.00368861 -0.000567289 0
-0.00114865 -0.00393649 0
0.00297475 0.00146021 0
0.000179325 -0.000360123 0
0.00045018 0.000994709 0
0.000186341 0.000201003 0
0.00022496 2.72333e-05 0
0.000471828 -0.000772958 0
0.000116834 0.000498826 0
0.000225527 0.00016024 0
0.000195722 -1.76342e-05 0
-0.000225358 0.000131651 0
0.00021475 0.000161867 0
0.00104618 0.000528895 0
9.40144e-05 0.000236939 0
0.0102002 0.00806116 0
-0.00382413 -0.00111323 0
-0.000560001 -0.00335361 0
0.00151302 0.0029822 0
-0.000730584 0.000531022 0
0.000159782 0.000234191 0
0.000543175 0.000161463 0
6.64335e-06 0.000198479 0
-0.0147399 -0.0389099 0
-0.342792 0.250254 0
-0.000865804 0.0226711 0
-0.0195969 0.0203817 0
0.00519026 0.0142054 0
-0.0200861 0.0184935 0
0.00270875 -0.00104743 0
-0.0142313 -0.00844732 0
-0.0241716 0.0182817 0
-0.245157 0.345588 0
-0.0222907 0.00100756 0
0.0227723 -0.0147778 0
0.34758 0.247181 0
-0.016128 -0.0244537 0
0.0186491 0.0225613 0
0.000217505 0.0228797 0
0.247145 0.347501 0
0.0226058 0.0186475 0
-0.0245507 -0.0159128 0
0.0230389 0.000135935 0
0.0204275 0.0203941 0
-0.0074299 0.0146198 0
0.0147306 -0.00747686 0
-0.00248058 -0.00245329 0
0.00269412 0.00226007 0
-0.0138795 0.00750123 0
0.00474007 -0.0137421 0
-0.0202443 -0.0179141 0
-0.0219418 -0.000891478 0
0.0223294 0.0157693 0
-0.0238679 -0.0178698 0
-0.245337 -0.346034 0
-0.00177519 -0.0230243 0
-0.0200643 -0.0192956 0
-0.013768 0.0388332 0
-0.343076 -0.25018 0
-0.0241901 0.0155995 0
0.0242927 -0.00120328 0
0.246648 -0.348129 0
0.02062 -0.0192193 0
0.0158523 0.00785509 0
0.00816656 -0.000630625 0
0.0175864 -0.0193379 0
-0.015898 -0.0170855 0
0.020373 -0.0203757 0
0.0113061 -0.0264035 0
0.341973 -0.252671 0
-0.00498511 0.0437119 0
0.00331291 0.00139218 0
-0.0131936 0.00520862 0
0.00449732 -0.0136808 0
-0.0183494 -0.0179772 0
-0.0214065 -0.00248895 0
0.0369195 -0.0134849 0
-0.0217563 -0.0192625 0
-0.247943 -0.341681 0
-0.00112834 -0.0228367 0
-0.0193049 -0.0213722 0
-0.0154245 0.0365011 0
-0.34084 -0.248175 0
-0.0386356 -0.0137702 0
0.0232009 -0.0017744 0
0.250373 -0.343068 0
0.0194636 -0.0200657 0
0.0139172 0.00474094 0
-0.00208605 0.00269248 0
0.0180796 -0.0202487 0
-0.00734175 -0.0139045 0
0.0180377 -0.0238719 0
0.00105079 -0.0219685 0
0.346169 -0.245337 0
-0.0156432 0.0222895 0
0.00122257 0.00270708 0
-0.0140133 0.00518025 0
0.00860745 -0.0142564 0
-0.0183244 -0.0201356 0
-0.0224761 -0.000875655 0
0.0391427 -0.0147647 0
-0.0202112 -0.0196493 0
-0.250051 -0.342885 0
-0.000847417 -0.0223172 0
-0.0181123 -0.0242235 0
0.0149048 0.0227264 0
-0.345449 -0.245238 0
-0.0354776 -0.0157691 0
0.0254501 -0.00195561 0
0.248453 -0.341515 0
0.0203569 -0.0201356 0
0.0162789 0.00342144 0
0.00999077 0.000298049 0
0.0169308 -0.0209694 0
-0.0100933 -0.0193792 0
0.0219576 -0.0249541 0
0.0131883 -0.030308 0
0.340943 -0.248598 0
-0.0155176 0.046517 0
0.0153836 -0.0243229 0
-0.348045 0.24658 0
-0.00112406 0.024429 0
-0.0191797 0.0206442 0
0.00790498 0.0159431 0
-0.0192737 0.01759 0
-0.000656558 0.00801468 0
-0.0168822 -0.0158015 0
-0.0203054 0.0204453 0
-0.252663 0.342021 0
-0.0261747 0.0112773 0
0.0438125 -0.00502151 0
0.343295 0.250346 0
-0.0157171 -0.0486426 0
0.0239752 0.0208253 0
0.0135991 0.0335954 0
0.251331 0.341021 0
0.0208602 0.0201393 0
-0.0398294 -0.00314661 0
0.026725 0.0127216 0
0.0183928 0.0178656 0
-0.0094203 0.0213348 0
0.0175187 -0.0158757 0
0.0145406 0.00815817 0
-0.0134646 -0.0359341 0
-0.342005 0.248487 0
-0.00266084 0.0243051 0
-0.0195933 0.0210507 0
0.00471806 0.0159393 0
-0.0203312 0.0177652 0
-0.000593422 0.011761 0
-0.0196965 -0.0115328 0
-0.0242702 0.0223658 0
-0.248681 0.340778 0
-0.0312762 0.0128432 0
0.0464309 -0.0148707 0
0.34057 0.251219 0
-0.00293653 -0.0400177 0
0.0199137 0.021237 0
0.0130292 0.0271655 0
0.249995 0.343577 0
0.021893 0.0234282 0
-0.0488688 -0.0163666 0
0.0325709 0.0147147 0
0.0184459 0.0182678 0
-0.0177667 0.0179484 0
0.0210023 -0.0092157 0
0.00948584 0.0147966 0
0.00883542 0.039434 0
-0.000181144 0.0958674 0
-0.0316217 -0.00597713 0
-0.0157294 -0.0129971 0
-0.00173311 0.105386 0
-0.000988961 0.153475 0
-0.0158181 -0.0143269 0
-0.000282262 -0.0183486 0
0.0065673 -0.0020035 0
0.00148743 0.00274422 0
0.000543451 0.00149764 0
-2.11553e-05 -0.000441732 0
0.00167683 0.00241653 0
0.000415841 0.00474312 0
0.000140565 -0.00137615 0
0.000502856 -0.000985096 0
0.0393401 0.00862087 0
-0.00569373 -0.0318159 0
0.0958246 -0.000407522 0
-0.0127539 -0.0157451 0
-0.00174527 0.00646936 0
0.00154879 0.000381542 0
0.00295457 0.00134589 0
-0.000284168 -7.86635e-05 0
0.105374 -0.00198118 0
-0.0140367 -0.0158367 0
0.15335 -0.00115297 0
-0.0179893 -0.000204232 0
0.00266522 0.00153891 0
-0.00125437 7.32154e-05 0
0.00499708 0.000375289 0
-0.000841795 0.000469703 0
0.000588416 0.153452 0
0.00263439 0.104909 0
0.0025675 -0.0183904 0
0.0170562 -0.0144008 0
0.00148166 0.0956656 0
-0.0054964 0.0380158 0
0.0167528 -0.0131045 0
0.030893 -0.00671134 0
0.000411931 0.00477327 0
-0.000729058 0.00238808 0
0.000416889 -0.00090195 0
0.000631954 -0.0014247 0
-0.00048489 0.00271534 0
-0.00552742 -0.00251949 0
0.000817247 -0.000382025 0
-0.00053613 0.00154867 0
0.153332 0.000433559 0
-0.0180424 0.00266984 0
0.10496 0.00267953 0
-0.0140493 0.0171703 0
0.00501706 0.000397894 0
-0.000750232 0.000403974 0
0.00257939 -0.000661734 0
-0.00130507 0.000626144 0
0.0956523 0.00147572 0
-0.0128248 0.0168882 0
0.0379303 -0.00491313 0
-0.00631549 0.0304441 0
0.0028964 -0.000416448 0
-0.000250387 0.000780513 0
-0.00226605 -0.00547863 0
0.00158209 -0.000270241 0
-0.162419 -0.000122226 0
-0.672741 0.00491472 0
-0.146344 0.0327291 0
-0.61336 0.0637127 0
-0.145992 0.0334777 0
-0.601304 0.064897 0
-0.106524 0.0605781 0
-0.480587 0.104597 0
0.642385 0.00369595 0
-0.0124569 0.000995097 0
0.587974 0.0722209 0
-0.012136 0.0463673 0
0.573485 0.0737989 0
-0.0114559 0.0476631 0
0.461931 0.118004 0
-0.01046 0.0798457 0
0.00104557 0.0124049 0
0.0464123 0.0120104 0
0.00367754 -0.642424 0
0.0721779 -0.588087 0
0.0477078 0.0113282 0
0.0798857 0.010238 0
0.0737547 -0.573597 0
0.117925 -0.462137 0
-0.118117 0.460215 0
-0.0728566 0.573238 0
-0.0801829 -0.00960749 0
-0.0493945 -0.0112884 0
-0.0712025 0.587556 0
-0.00226608 0.642311 0
-0.0480377 -0.0117236 0
-0.00296309 -0.0124879 0
0.00367481 0.642292 0
0.0721091 0.587844 0
0.00110186 -0.0124627 0
0.0464881 -0.0120415 0
0.073642 0.57347 0
0.118161 0.461741 0
0.0478012 -0.0115471 0
0.0798783 -0.010163 0
-0.107258 -0.0609133 0
-0.482595 -0.103434 0
-0.146655 -0.0340682 0
-0.60155 -0.0634726 0
-0.146849 -0.0333343 0
-0.613813 -0.0622135 0
-0.162748 -0.000642892 0
-0.673228 -0.0032223 0
0.478579 -0.104836 0
0.100608 -0.0626657 0
0.602109 -0.064647 0
0.150306 -0.0351416 0
0.613705 -0.0642666 0
0.146974 -0.0360963 0
0.669391 -0.00363869 0
0.154934 -0.000380155 0
-0.0609733 -0.106901 0
-0.0354765 -0.146443 0
-0.103752 -0.479735 0
-0.0633808 -0.601353 0
-0.0347161 -0.146642 0
-0.00236762 -0.16276 0
-0.0619448 -0.613491 0
-0.00244308 -0.673208 0
0.00096076 -0.162783 0
0.0336113 -0.146873 0
0.00354771 -0.673238 0
0.0624978 -0.613815 0
0.0343431 -0.146678 0
0.0611569 -0.107272 0
0.0637547 -0.601556 0
0.103683 -0.482594 0
-0.0602782 -0.106569 0
-0.0331459 -0.146053 0
-0.104312 -0.480676 0
-0.0645867 -0.60141 0
-0.0323956 -0.146405 0
0.000492721 -0.1625 0
-0.063401 -0.613468 0
-0.00457521 -0.672874 0
0.00966652 -0.0802382 0
-0.460151 -0.118219 0
0.011297 -0.049449 0
-0.573228 -0.0729679 0
0.0117323 -0.0480919 0
-0.587548 -0.0713136 0
0.0124368 -0.00301128 0
-0.642361 -0.00238246 0
0.47983 -0.104432 0
0.104833 -0.06322 0
0.601965 -0.0637001 0
0.147418 -0.0361676 0
0.612842 -0.0621891 0
0.143732 -0.0352555 0
0.673957 -0.0023391 0
0.164473 -0.00193691 0
0.0124106 0.00105406 0
-0.642342 0.00355821 0
0.0119157 0.046448 0
-0.587965 0.0719821 0
0.0114192 0.0477615 0
-0.57359 0.0735146 0
0.00994084 0.0798478 0
-0.461952 0.118013 0
-0.104602 0.478885 0
-0.0648123 0.602386 0
-0.0625118 0.100674 0
-0.0349838 0.15056 0
-0.0643883 0.614071 0
-0.00368771 0.669677 0
-0.0359733 0.147089 0
-0.000277329 0.155338 0
0.673946 0.00336372 0
0.164473 0.000599354 0
0.613294 0.0626122 0
0.14416 0.0341615 0
0.602246 0.0639506 0
0.147372 0.0350652 0
0.48302 0.104316 0
0.105273 0.063733 0
0.00216852 0.669695 0
0.0635624 0.613903 0
0.00402394 0.155367 0
0.0391699 0.147372 0
0.0641524 0.602307 0
0.105001 0.477625 0
0.0381361 0.151107 0
0.0639067 0.100908 0
-0.162724 0.00268801 0
-0.673203 0.00277123 0
-0.14659 0.0350932 0
-0.613476 0.0623257 0
-0.146392 0.0358569 0
-0.601348 0.0637653 0
-0.10683 0.0614413 0
-0.479723 0.104205 0
-0.104186 0.480968 0
-0.0623118 0.60201 0
-0.0637242 0.105568 0
-0.0370728 0.147708 0
-0.0608715 0.612879 0
-0.000959205 0.673925 0
-0.0361747 0.144323 0
-0.00307802 0.164624 0
0.66942 0.00220277 0
0.15497 0.00391977 0
0.613481 0.0635006 0
0.147184 0.0391067 0
0.602027 0.064021 0
0.150762 0.0381344 0
0.477035 0.105381 0
0.100733 0.0638701 0
0.00473607 0.6739 0
0.0638172 0.613226 0
-0.000519194 0.164728 0
0.0332487 0.143869 0
0.0651019 0.602327 0
0.105113 0.481426 0
0.0342188 0.147194 0
0.0629151 0.105401 0
-0.0803119 0.0100441 0
-0.0493526 0.0111293 0
-0.117887 -0.460571 0
-0.0730435 -0.573179 0
-0.0480346 0.0117942 0
-0.00300473 0.0124375 0
-0.0713176 -0.587682 0
-0.00228186 -0.642437 0
-0.107201 -0.0615102 0
-0.480324 -0.103656 0
-0.146375 -0.0364091 0
-0.601005 -0.0620918 0
-0.146824 -0.0356756 0
-0.613063 -0.060727 0
-0.162364 -0.00349405 0
-0.672797 -0.00108503 0
0.460637 -0.117899 0
-0.00998511 -0.0803678 0
0.573196 -0.0730446 0
-0.0111205 -0.0494079 0
0.587701 -0.0713179 0
-0.0117855 -0.0480896 0
0.642397 -0.00226455 0
-0.0124884 -0.00305564 0
0.00386668 -0.162445 0
0.0360989 -0.14693 0
0.00142638 -0.672935 0
0.0611034 -0.613235 0
0.0368352 -0.146482 0
0.0620158 -0.107339 0
0.0624708 -0.601184 0
0.104078 -0.480551 0
-0.107727 0.0630473 0
-0.435198 0.108516 0
-0.0658565 0.0633268 0
-0.259781 0.067126 0
-0.465897 -0.00722667 0
-1.39701 0.597056 0
-0.266473 0.127381 0
-0.869253 0.416386 0
-0.0685174 0.0611424 0
-0.256039 0.0660085 0
-0.0432681 0.0793459 0
-0.10175 -0.0609148 0
-0.254135 0.119257 0
-0.851532 0.406281 0
-0.0872063 0.156304 0
-0.449838 0.303591 0
1.39215 0.594044 0
0.440023 0.000954736 0
0.86944 0.417109 0
0.252025 0.131295 0
0.416712 0.121882 0
-0.00793233 0.0821978 0
0.248944 0.0820623 0
-0.00443429 0.0793448 0
0.848054 0.408584 0
0.24037 0.123515 0
0.444993 0.302674 0
0.0858332 0.146882 0
0.246426 0.0804097 0
-0.00113862 0.0766641 0
0.101918 -0.0370809 0
0.00802276 0.0859921 0
0.0822377 0.00770312 0
0.0793749 0.00407582 0
0.121802 -0.416917 0
0.0819227 -0.249269 0
0.0766867 0.000851959 0
0.0862388 -0.00841159 0
0.0802625 -0.24682 0
-0.0371383 -0.102526 0
0.000891167 -0.440226 0
0.131211 -0.25235 0
0.593847 -1.39231 0
0.416834 -0.869721 0
0.123433 -0.240763 0
0.146663 -0.0864419 0
0.408311 -0.848298 0
0.302124 -0.44535 0
-0.306292 0.441634 0
-0.408152 0.846015 0
-0.137449 0.0885285 0
-0.124715 0.242288 0
-0.416429 0.868133 0
-0.589545 1.39078 0
-0.132472 0.2533 0
-0.00515693 0.441049 0
0.0355543 0.105048 0
-0.0818748 0.247845 0
-0.0890724 0.00902346 0
-0.0760835 -0.000387357 0
-0.08334 0.248924 0
-0.122059 0.41664 0
-0.0789912 -0.00406377 0
-0.0823547 -0.00750423 0
0.594185 1.39204 0
0.41669 0.869345 0
0.000541594 0.439931 0
0.131889 0.252087 0
0.408247 0.84801 0
0.302834 0.445288 0
0.12403 0.240352 0
0.14658 0.0857087 0
0.122089 0.416778 0
0.0820424 0.248921 0
0.0822107 -0.0079855 0
0.0794146 -0.00451416 0
0.0804065 0.246425 0
-0.0373343 0.101751 0
0.0767325 -0.00115125 0
0.0860432 0.00804751 0
-0.0444287 -0.0744577 0
-0.100386 0.0549533 0
-0.0694304 -0.0605724 0
-0.25685 -0.0649507 0
-0.0853547 -0.154722 0
-0.451443 -0.303431 0
-0.254425 -0.120846 0
-0.850947 -0.404846 0
-0.0666797 -0.0625041 0
-0.259758 -0.0663531 0
-0.108837 -0.0633187 0
-0.436469 -0.107285 0
-0.26598 -0.129395 0
-0.869379 -0.414212 0
-0.465722 0.00876395 0
-1.39682 -0.598175 0
0.448456 -0.299964 0
0.0893601 -0.154417 0
0.850363 -0.405373 0
0.252358 -0.120752 0
0.103186 0.0628106 0
0.0580934 -0.0697044 0
0.254683 -0.068183 0
0.0749741 -0.0668882 0
0.869038 -0.41352 0
0.263882 -0.128172 0
1.3957 -0.598135 0
0.468913 0.00826104 0
0.257085 -0.0678438 0
0.0508746 -0.065897 0
0.439631 -0.107877 0
0.12043 -0.0634877 0
-0.0802975 -0.044828 0
-0.0600469 -0.069505 0
0.0564528 -0.105603 0
-0.0675997 -0.257742 0
-0.0623719 -0.0660605 0
-0.0631715 -0.108636 0
-0.0685451 -0.259869 0
-0.10759 -0.43533 0
-0.147021 -0.0904356 0
-0.119255 -0.25638 0
-0.306011 -0.445806 0
-0.406293 -0.849611 0
-0.127347 -0.267566 0
0.00227976 -0.467171 0
-0.416006 -0.868329 0
-0.592227 -1.39622 0
0.0635606 -0.108851 0
0.0627216 -0.0666871 0
0.107532 -0.43647 0
0.0665752 -0.259756 0
0.0607885 -0.0694377 0
0.0746544 -0.0444311 0
0.0651713 -0.256849 0
-0.0547504 -0.100384 0
-0.00851524 -0.465721 0
0.129617 -0.265978 0
0.598422 -1.3968 0
0.414432 -0.869363 0
0.121067 -0.254424 0
0.154923 -0.085353 0
0.405064 -0.850933 0
0.303625 -0.45143 0
-0.0791214 -0.0432919 0
-0.0608793 -0.0685503 0
0.0611506 -0.101814 0
-0.065753 -0.256117 0
-0.0630614 -0.065889 0
-0.0627489 -0.107772 0
-0.0668679 -0.259859 0
-0.108232 -0.435287 0
-0.156068 -0.0872677 0
-0.119001 -0.254213 0
-0.303397 -0.449938 0
-0.406045 -0.851657 0
-0.127122 -0.266552 0
0.00751167 -0.465987 0
-0.416146 -0.869376 0
-0.596782 -1.39714 0
-0.0088978 -0.0891126 0
-0.104922 0.0354822 0
0.000487461 -0.0761324 0
-0.247734 -0.0819589 0
-0.0884029 -0.137512 0
-0.441501 -0.306369 0
-0.242177 -0.124797 0
-0.84587 -0.408263 0
0.004162 -0.0790414 0
-0.248816 -0.083427 0
0.00756232 -0.0824101 0
-0.416578 -0.122161 0
-0.253192 -0.132557 0
-0.867991 -0.416546 0
-0.440987 -0.00526366 0
-1.3907 -0.589702 0
0.444631 -0.301437 0
0.093271 -0.144599 0
0.849545 -0.405306 0
0.257277 -0.118495 0
0.107636 0.0645695 0
0.0687941 -0.064835 0
0.258159 -0.0708382 0
0.0822848 -0.0686102 0
0.868612 -0.414797 0
0.268636 -0.126237 0
1.39704 -0.592293 0
0.470338 0.00140237 0
0.261367 -0.0706362 0
0.0564974 -0.0682496 0
0.438548 -0.107606 0
0.116022 -0.0640403 0
0.00775611 0.0821809 0
-0.416987 0.12194 0
0.0041555 0.07939 0
-0.249248 0.0818479 0
-0.440138 0.000409944 0
-1.39221 0.593925 0
-0.252414 0.13175 0
-0.869628 0.416364 0
0.000864405 0.0767013 0
-0.246821 0.0802051 0
-0.00843645 0.0862488 0
-0.102359 -0.0374281 0
-0.240747 0.123894 0
-0.848256 0.407924 0
-0.086318 0.146323 0
-0.445639 0.302246 0
-0.299665 0.44821 0
-0.405684 0.850493 0
-0.154678 0.0896156 0
-0.120121 0.252494 0
-0.413908 0.869164 0
-0.597976 1.39599 0
-0.127439 0.263914 0
0.00787057 0.46922 0
0.0626385 0.103495 0
-0.0680805 0.254807 0
-0.0693563 0.0581595 0
-0.0668213 0.0751417 0
-0.0677519 0.257192 0
-0.107587 0.439791 0
-0.0657941 0.0512582 0
-0.0633327 0.120394 0
1.39794 0.598198 0
0.469271 -0.00752887 0
0.870226 0.412709 0
0.268058 0.128465 0
0.440076 0.107468 0
0.116113 0.0647586 0
0.262315 0.0691328 0
0.0567586 0.0697268 0
0.851349 0.403564 0
0.256127 0.120254 0
0.450649 0.297926 0
0.0895807 0.152291 0
0.258072 0.0689788 0
0.0833936 0.0705627 0
0.10366 -0.0637161 0
0.0735089 0.0588625 0
0.594172 1.39495 0
0.414258 0.868265 0
-0.00222038 0.470049 0
0.129153 0.265142 0
0.40641 0.848558 0
0.303548 0.444995 0
0.121794 0.254893 0
0.146386 0.092801 0
0.108067 0.439662 0
0.0701252 0.257287 0
0.0646635 0.120327 0
0.0658666 0.0525237 0
0.0704844 0.256723 0
-0.0566762 0.107306 0
0.0665869 0.0752481 0
0.0727496 0.0579087 0
-0.108565 0.0636426 0
-0.435332 0.108047 0
-0.0659669 0.0630032 0
-0.259892 0.069093 0
-0.467175 -0.00180441 0
-1.39628 0.592657 0
-0.267591 0.127929 0
-0.86843 0.416506 0
-0.0694127 0.0606818 0
-0.257822 0.0681515 0
-0.0447102 0.0813107 0
-0.105798 -0.0557132 0
-0.256459 0.119848 0
-0.849702 0.406802 0
-0.0906224 0.14765 0
-0.445956 0.306509 0
-0.302113 0.446326 0
-0.403542 0.84884 0
-0.142839 0.0913284 0
-0.121263 0.25743 0
-0.412402 0.868347 0
-0.593632 1.39621 0
-0.129523 0.268564 0
0.00337601 0.469859 0
0.0602322 0.105826 0
-0.0704882 0.258867 0
-0.0617718 0.0711815 0
-0.0681161 0.0825786 0
-0.0705038 0.261591 0
-0.107492 0.439623 0
-0.0677328 0.0568764 0
-0.0645883 0.116485 0
1.39447 0.594094 0
0.469898 -0.00266342 0
0.868042 0.414078 0
0.265217 0.129688 0
0.43944 0.108534 0
0.120412 0.0646243 0
0.257246 0.0703083 0
0.0516584 0.0657408 0
0.848476 0.406097 0
0.254602 0.122345 0
0.444983 0.303945 0
0.0927387 0.145894 0
0.256455 0.0707433 0
0.0749385 0.0663471 0
0.106967 -0.058118 0
0.0576274 0.0737277 0
0.596812 1.39839 0
0.414624 0.87033 0
-0.00642813 0.469889 0
0.126107 0.268573 0
0.404774 0.852102 0
0.297621 0.449336 0
0.118357 0.255934 0
0.153509 0.0916286 0
0.108277 0.439235 0
0.0695249 0.262357 0
0.0638876 0.116099 0
0.0698813 0.0560244 0
0.0697025 0.257314 0
-0.0701193 0.105272 0
0.0705433 0.0834607 0
0.0636044 0.0714787 0
-0.0886911 -0.00887803 0
-0.0761204 0.000509622 0
0.0341339 -0.104937 0
-0.0817913 -0.247766 0
-0.0789969 0.00388714 0
-0.0825248 0.00743224 0
-0.0833326 -0.248689 0
-0.121751 -0.416456 0
-0.138015 -0.0881853 0
-0.124307 -0.242241 0
-0.306143 -0.441276 0
-0.408582 -0.845782 0
-0.132123 -0.252939 0
-0.00566516 -0.440839 0
-0.416753 -0.868125 0
-0.589778 -1.39085 0
-0.0438393 -0.0775599 0
-0.103585 0.0515763 0
-0.0690425 -0.0596135 0
-0.257912 -0.0671401 0
-0.0881208 -0.145254 0
-0.447426 -0.307081 0
-0.255992 -0.122306 0
-0.848531 -0.404795 0
-0.0666626 -0.0619201 0
-0.259331 -0.0683547 0
-0.108244 -0.063775 0
-0.435924 -0.107661 0
-0.266803 -0.130871 0
-0.867744 -0.413868 0
-0.466203 0.00409405 0
-1.39505 -0.593717 0
0.441415 -0.306144 0
0.0883102 -0.138036 0
0.845893 -0.408571 0
0.242341 -0.124325 0
0.105063 0.0341192 0
0.00900331 -0.0887352 0
0.247866 -0.081809 0
-0.000409633 -0.0761718 0
0.868238 -0.416742 0
0.253039 -0.132141 0
1.39093 -0.589754 0
0.440903 -0.00567609 0
0.24879 -0.0833504 0
-0.00378899 -0.0790491 0
0.416519 -0.121763 0
-0.00737411 -0.0825807 0
0.0642833 -0.108385 0
0.0625789 -0.0668465 0
0.108085 -0.436166 0
0.0688369 -0.259664 0
0.0602761 -0.0692302 0
0.0785798 -0.0440922 0
0.0676229 -0.258312 0
-0.0509194 -0.104208 0
-0.00363988 -0.466445 0
0.131394 -0.267137 0
0.594054 -1.39534 0
0.41423 -0.868144 0
0.12284 -0.256391 0
0.145752 -0.0887361 0
0.405164 -0.848907 0
0.307335 -0.447915 0
-0.470192 0.212027 0
-1.07495 0.873004 0
-0.152712 0.156435 0
-0.403481 0.412275 0
-0.104221 0.159217 0
-0.396241 0.396251 0
-0.122966 0.123269 0
-0.156713 0.101941 0
-0.410821 0.400939 0
-0.873454 1.0742 0
-0.154153 0.157182 0
-0.218039 0.473495 0
1.0765 0.874839 0
0.470862 0.215805 0
0.402088 0.409753 0
0.156624 0.155121 0
0.874848 1.07614 0
0.409681 0.402207 0
0.215562 0.471159 0
0.155672 0.156261 0
0.395406 0.395485 0
0.102803 0.157885 0
0.158331 0.102368 0
0.121405 0.121831 0
-0.122573 -0.120561 0
-0.156699 -0.104715 0
-0.105551 -0.160427 0
-0.396295 -0.395423 0
-0.153747 -0.158346 0
-0.218724 -0.472476 0
-0.410715 -0.400622 0
-0.873149 -1.07522 0
-0.153173 -0.157628 0
-0.40396 -0.411312 0
-0.470531 -0.211346 0
-1.07517 -0.872557 0
0.215561 -0.471148 0
0.154865 -0.157307 0
0.87428 -1.07672 0
0.408838 -0.402382 0
0.157571 -0.10287 0
0.123307 -0.121817 0
0.394477 -0.396448 0
0.102647 -0.160086 0
0.402121 -0.410717 0
0.1549 -0.157509 0
1.07523 -0.874639 0
0.467951 -0.213235 0
-0.123887 -0.122199 0
-0.157517 -0.10684 0
-0.104432 -0.159489 0
-0.396838 -0.396378 0
-0.154428 -0.155109 0
-0.214962 -0.471875 0
-0.413007 -0.402172 0
-0.871161 -1.07422 0
-0.153523 -0.156913 0
-0.402519 -0.412596 0
-0.472915 -0.214062 0
-1.07258 -0.871483 0
0.211543 -0.470526 0
0.157804 -0.153165 0
0.872744 -1.07515 0
0.41148 -0.403946 0
0.160605 -0.105539 0
0.120729 -0.12258 0
0.395591 -0.396284 0
0.104873 -0.156703 0
0.400791 -0.410703 0
0.158501 -0.153751 0
1.07537 -0.873128 0
0.472612 -0.218719 0
-0.123097 -0.123021 0
-0.159038 -0.104298 0