# vtk DataFile Version 3.0
#This file was generated by the deal.II library on 2020/8/22 at 21:53:34
ASCII
DATASET UNSTRUCTURED_GRID

POINTS 1456 double
0.5 0.5 0
1 0.5 0
0.5 1 0
1 1 0
-1 -0.25 0
-0.75 -0.25 0
-1 0 0
-0.75 0 0
-0.25 -0.25 0
0 -0.25 0
-0.25 0 0
0 0 0
-1 0 0
-0.75 0 0
-1 0.25 0
-0.75 0.25 0
-0.25 0 0
0 0 0
-0.25 0.25 0
0 0.25 0
-1 -1 0
-0.75 -1 0
-1 -0.75 0
-0.75 -0.75 0
-0.25 -1 0
0 -1 0
-0.25 -0.75 0
0 -0.75 0
0 -1 0
0.25 -1 0
0 -0.75 0
0.25 -0.75 0
0.75 -1 0
1 -1 0
0.75 -0.75 0
1 -0.75 0
0 -0.25 0
0.25 -0.25 0
0 0 0
0.25 0 0
0.75 -0.25 0
1 -0.25 0
0.75 0 0
1 0 0
-1 0.75 0
-0.75 0.75 0
-1 1 0
-0.75 1 0
-0.25 0.75 0
0 0.75 0
-0.25 1 0
0 1 0
0 0 0
0.25 0 0
0 0.25 0
0.25 0.25 0
0.25 0 0
0.5 0 0
0.25 0.25 0
0.5 0.25 0
0 0.25 0
0.25 0.25 0
0 0.5 0
0.25 0.5 0
0.25 0.25 0
0.5 0.25 0
0.25 0.5 0
0.5 0.5 0
0.5 0 0
0.75 0 0
0.5 0.25 0
0.75 0.25 0
0.75 0 0
1 0 0
0.75 0.25 0
1 0.25 0
0.5 0.25 0
0.75 0.25 0
0.5 0.5 0
0.75 0.5 0
0.75 0.25 0
1 0.25 0
0.75 0.5 0
1 0.5 0
0 0.5 0
0.25 0.5 0
0 0.75 0
0.25 0.75 0
0.25 0.5 0
0.5 0.5 0
0.25 0.75 0
0.5 0.75 0
0 0.75 0
0.25 0.75 0
0 1 0
0.25 1 0
0.25 0.75 0
0.5 0.75 0
0.25 1 0
0.5 1 0
-1 -0.5 0
-0.875 -0.5 0
-1 -0.375 0
-0.875 -0.375 0
-1 -0.375 0
-0.875 -0.375 0
-1 -0.25 0
-0.875 -0.25 0
-0.875 -0.375 0
-0.75 -0.375 0
-0.875 -0.25 0
-0.75 -0.25 0
-0.75 -0.375 0
-0.625 -0.375 0
-0.75 -0.25 0
-0.625 -0.25 0
-0.375 -0.375 0
-0.25 -0.375 0
-0.375 -0.25 0
-0.25 -0.25 0
-0.125 -0.5 0
0 -0.5 0
-0.125 -0.375 0
0 -0.375 0
-0.25 -0.375 0
-0.125 -0.375 0
-0.25 -0.25 0
-0.125 -0.25 0
-0.125 -0.375 0
0 -0.375 0
-0.125 -0.25 0
0 -0.25 0
-0.75 0.25 0
-0.625 0.25 0
-0.75 0.375 0
-0.625 0.375 0
-0.5 0 0
-0.375 0 0
-0.5 0.125 0
-0.375 0.125 0
-0.375 0 0
-0.25 0 0
-0.375 0.125 0
-0.25 0.125 0
-0.375 0.125 0
-0.25 0.125 0
-0.375 0.25 0
-0.25 0.25 0
-0.375 0.25 0
-0.25 0.25 0
-0.375 0.375 0
-0.25 0.375 0
-0.75 -0.75 0
-0.625 -0.75 0
-0.75 -0.625 0
-0.625 -0.625 0
-0.375 -0.75 0
-0.25 -0.75 0
-0.375 -0.625 0
-0.25 -0.625 0
0.25 -0.75 0
0.375 -0.75 0
0.25 -0.625 0
0.375 -0.625 0
0.625 -0.75 0
0.75 -0.75 0
0.625 -0.625 0
0.75 -0.625 0
0.25 -0.375 0
0.375 -0.375 0
0.25 -0.25 0
0.375 -0.25 0
0.625 -0.375 0
0.75 -0.375 0
0.625 -0.25 0
0.75 -0.25 0
-0.75 0.625 0
-0.625 0.625 0
-0.75 0.75 0
-0.625 0.75 0
-0.375 0.625 0
-0.25 0.625 0
-0.375 0.75 0
-0.25 0.75 0
-0.75 -0.25 0
-0.625 -0.25 0
-0.75 -0.125 0
-0.625 -0.125 0
-0.75 -0.125 0
-0.625 -0.125 0
-0.75 0 0
-0.625 0 0
-0.625 -0.125 0
-0.5 -0.125 0
-0.625 0 0
-0.5 0 0
-0.375 -0.25 0
-0.25 -0.25 0
-0.375 -0.125 0
-0.25 -0.125 0
-0.5 -0.125 0
-0.375 -0.125 0
-0.5 0 0
-0.375 0 0
-0.375 -0.125 0
-0.25 -0.125 0
-0.375 0 0
-0.25 0 0
-1 0.25 0
-0.875 0.25 0
-1 0.375 0
-0.875 0.375 0
-0.875 0.25 0
-0.75 0.25 0
-0.875 0.375 0
-0.75 0.375 0
-1 0.375 0
-0.875 0.375 0
-1 0.5 0
-0.875 0.5 0
-0.25 0.25 0
-0.125 0.25 0
-0.25 0.375 0
-0.125 0.375 0
-0.125 0.25 0
0 0.25 0
-0.125 0.375 0
0 0.375 0
-0.125 0.375 0
0 0.375 0
-0.125 0.5 0
0 0.5 0
-0.75 -1 0
-0.625 -1 0
-0.75 -0.875 0
-0.625 -0.875 0
-0.625 -1 0
-0.5 -1 0
-0.625 -0.875 0
-0.5 -0.875 0
-0.75 -0.875 0
-0.625 -0.875 0
-0.75 -0.75 0
-0.625 -0.75 0
-0.5 -1 0
-0.375 -1 0
-0.5 -0.875 0
-0.375 -0.875 0
-0.375 -1 0
-0.25 -1 0
-0.375 -0.875 0
-0.25 -0.875 0
-0.375 -0.875 0
-0.25 -0.875 0
-0.375 -0.75 0
-0.25 -0.75 0
0.25 -1 0
0.375 -1 0
0.25 -0.875 0
0.375 -0.875 0
0.375 -1 0
0.5 -1 0
0.375 -0.875 0
0.5 -0.875 0
0.25 -0.875 0
0.375 -0.875 0
0.25 -0.75 0
0.375 -0.75 0
0 -0.75 0
0.125 -0.75 0
0 -0.625 0
0.125 -0.625 0
0.125 -0.75 0
0.25 -0.75 0
0.125 -0.625 0
0.25 -0.625 0
0 -0.625 0
0.125 -0.625 0
0 -0.5 0
0.125 -0.5 0
0.75 -0.75 0
0.875 -0.75 0
0.75 -0.625 0
0.875 -0.625 0
0.875 -0.75 0
1 -0.75 0
0.875 -0.625 0
1 -0.625 0
0.875 -0.625 0
1 -0.625 0
0.875 -0.5 0
1 -0.5 0
0 -0.5 0
0.125 -0.5 0
0 -0.375 0
0.125 -0.375 0
0 -0.375 0
0.125 -0.375 0
0 -0.25 0
0.125 -0.25 0
0.125 -0.375 0
0.25 -0.375 0
0.125 -0.25 0
0.25 -0.25 0
0.25 -0.25 0
0.375 -0.25 0
0.25 -0.125 0
0.375 -0.125 0
0.25 -0.125 0
0.375 -0.125 0
0.25 0 0
0.375 0 0
0.375 -0.125 0
0.5 -0.125 0
0.375 0 0
0.5 0 0
0.875 -0.5 0
1 -0.5 0
0.875 -0.375 0
1 -0.375 0
0.75 -0.375 0
0.875 -0.375 0
0.75 -0.25 0
0.875 -0.25 0
0.875 -0.375 0
1 -0.375 0
0.875 -0.25 0
1 -0.25 0
0.625 -0.25 0
0.75 -0.25 0
0.625 -0.125 0
0.75 -0.125 0
0.5 -0.125 0
0.625 -0.125 0
0.5 0 0
0.625 0 0
0.625 -0.125 0
0.75 -0.125 0
0.625 0 0
0.75 0 0
-1 0.5 0
-0.875 0.5 0
-1 0.625 0
-0.875 0.625 0
-1 0.625 0
-0.875 0.625 0
-1 0.75 0
-0.875 0.75 0
-0.875 0.625 0
-0.75 0.625 0
-0.875 0.75 0
-0.75 0.75 0
-0.75 0.75 0
-0.625 0.75 0
-0.75 0.875 0
-0.625 0.875 0
-0.75 0.875 0
-0.625 0.875 0
-0.75 1 0
-0.625 1 0
-0.625 0.875 0
-0.5 0.875 0
-0.625 1 0
-0.5 1 0
-0.125 0.5 0
0 0.5 0
-0.125 0.625 0
0 0.625 0
-0.25 0.625 0
-0.125 0.625 0
-0.25 0.75 0
-0.125 0.75 0
-0.125 0.625 0
0 0.625 0
-0.125 0.75 0
0 0.75 0
-0.375 0.75 0
-0.25 0.75 0
-0.375 0.875 0
-0.25 0.875 0
-0.5 0.875 0
-0.375 0.875 0
-0.5 1 0
-0.375 1 0
-0.375 0.875 0
-0.25 0.875 0
-0.375 1 0
-0.25 1 0
-0.75 0 0
-0.625 0 0
-0.75 0.125 0
-0.625 0.125 0
-0.625 0 0
-0.5 0 0
-0.625 0.125 0
-0.5 0.125 0
-0.75 0.125 0
-0.625 0.125 0
-0.75 0.25 0
-0.625 0.25 0
-0.625 0.125 0
-0.5 0.125 0
-0.625 0.25 0
-0.5 0.25 0
-1 -0.75 0
-0.875 -0.75 0
-1 -0.625 0
-0.875 -0.625 0
-0.875 -0.75 0
-0.75 -0.75 0
-0.875 -0.625 0
-0.75 -0.625 0
-1 -0.625 0
-0.875 -0.625 0
-1 -0.5 0
-0.875 -0.5 0
-0.875 -0.625 0
-0.75 -0.625 0
-0.875 -0.5 0
-0.75 -0.5 0
-0.25 -0.75 0
-0.125 -0.75 0
-0.25 -0.625 0
-0.125 -0.625 0
-0.125 -0.75 0
0 -0.75 0
-0.125 -0.625 0
0 -0.625 0
-0.25 -0.625 0
-0.125 -0.625 0
-0.25 -0.5 0
-0.125 -0.5 0
-0.125 -0.625 0
0 -0.625 0
-0.125 -0.5 0
0 -0.5 0
0.5 -1 0
0.625 -1 0
0.5 -0.875 0
0.625 -0.875 0
0.625 -1 0
0.75 -1 0
0.625 -0.875 0
0.75 -0.875 0
0.5 -0.875 0
0.625 -0.875 0
0.5 -0.75 0
0.625 -0.75 0
0.625 -0.875 0
0.75 -0.875 0
0.625 -0.75 0
0.75 -0.75 0
-0.625 -0.5 0
-0.5625 -0.5 0
-0.625 -0.4375 0
-0.5625 -0.4375 0
-0.625 -0.4375 0
-0.5625 -0.4375 0
-0.625 -0.375 0
-0.5625 -0.375 0
-0.5625 -0.4375 0
-0.5 -0.4375 0
-0.5625 -0.375 0
-0.5 -0.375 0
-0.4375 -0.5 0
-0.375 -0.5 0
-0.4375 -0.4375 0
-0.375 -0.4375 0
-0.5 -0.4375 0
-0.4375 -0.4375 0
-0.5 -0.375 0
-0.4375 -0.375 0
-0.4375 -0.4375 0
-0.375 -0.4375 0
-0.4375 -0.375 0
-0.375 -0.375 0
-0.625 0.375 0
-0.5625 0.375 0
-0.625 0.4375 0
-0.5625 0.4375 0
-0.5625 0.375 0
-0.5 0.375 0
-0.5625 0.4375 0
-0.5 0.4375 0
-0.625 0.4375 0
-0.5625 0.4375 0
-0.625 0.5 0
-0.5625 0.5 0
-0.5 0.375 0
-0.4375 0.375 0
-0.5 0.4375 0
-0.4375 0.4375 0
-0.4375 0.375 0
-0.375 0.375 0
-0.4375 0.4375 0
-0.375 0.4375 0
-0.4375 0.4375 0
-0.375 0.4375 0
-0.4375 0.5 0
-0.375 0.5 0
-0.625 -0.625 0
-0.5625 -0.625 0
-0.625 -0.5625 0
-0.5625 -0.5625 0
-0.5625 -0.625 0
-0.5 -0.625 0
-0.5625 -0.5625 0
-0.5 -0.5625 0
-0.625 -0.5625 0
-0.5625 -0.5625 0
-0.625 -0.5 0
-0.5625 -0.5 0
-0.5625 -0.5625 0
-0.5 -0.5625 0
-0.5625 -0.5 0
-0.5 -0.5 0
-0.5 -0.625 0
-0.4375 -0.625 0
-0.5 -0.5625 0
-0.4375 -0.5625 0
-0.4375 -0.625 0
-0.375 -0.625 0
-0.4375 -0.5625 0
-0.375 -0.5625 0
-0.4375 -0.5625 0
-0.375 -0.5625 0
-0.4375 -0.5 0
-0.375 -0.5 0
0.375 -0.625 0
0.4375 -0.625 0
0.375 -0.5625 0
0.4375 -0.5625 0
0.4375 -0.625 0
0.5 -0.625 0
0.4375 -0.5625 0
0.5 -0.5625 0
0.375 -0.5625 0
0.4375 -0.5625 0
0.375 -0.5 0
0.4375 -0.5 0
0.5 -0.625 0
0.5625 -0.625 0
0.5 -0.5625 0
0.5625 -0.5625 0
0.5625 -0.625 0
0.625 -0.625 0
0.5625 -0.5625 0
0.625 -0.5625 0
0.5 -0.5625 0
0.5625 -0.5625 0
0.5 -0.5 0
0.5625 -0.5 0
0.5625 -0.5625 0
0.625 -0.5625 0
0.5625 -0.5 0
0.625 -0.5 0
0.375 -0.5 0
0.4375 -0.5 0
0.375 -0.4375 0
0.4375 -0.4375 0
0.375 -0.4375 0
0.4375 -0.4375 0
0.375 -0.375 0
0.4375 -0.375 0
0.4375 -0.4375 0
0.5 -0.4375 0
0.4375 -0.375 0
0.5 -0.375 0
0.5625 -0.5 0
0.625 -0.5 0
0.5625 -0.4375 0
0.625 -0.4375 0
0.5 -0.4375 0
0.5625 -0.4375 0
0.5 -0.375 0
0.5625 -0.375 0
0.5625 -0.4375 0
0.625 -0.4375 0
0.5625 -0.375 0
0.625 -0.375 0
-0.625 0.5 0
-0.5625 0.5 0
-0.625 0.5625 0
-0.5625 0.5625 0
-0.5625 0.5 0
-0.5 0.5 0
-0.5625 0.5625 0
-0.5 0.5625 0
-0.625 0.5625 0
-0.5625 0.5625 0
-0.625 0.625 0
-0.5625 0.625 0
-0.5625 0.5625 0
-0.5 0.5625 0
-0.5625 0.625 0
-0.5 0.625 0
-0.4375 0.5 0
-0.375 0.5 0
-0.4375 0.5625 0
-0.375 0.5625 0
-0.5 0.5625 0
-0.4375 0.5625 0
-0.5 0.625 0
-0.4375 0.625 0
-0.4375 0.5625 0
-0.375 0.5625 0
-0.4375 0.625 0
-0.375 0.625 0
-0.875 -0.5 0
-0.8125 -0.5 0
-0.875 -0.4375 0
-0.8125 -0.4375 0
-0.8125 -0.5 0
-0.75 -0.5 0
-0.8125 -0.4375 0
-0.75 -0.4375 0
-0.875 -0.4375 0
-0.8125 -0.4375 0
-0.875 -0.375 0
-0.8125 -0.375 0
-0.8125 -0.4375 0
-0.75 -0.4375 0
-0.8125 -0.375 0
-0.75 -0.375 0
-0.75 -0.5 0
-0.6875 -0.5 0
-0.75 -0.4375 0
-0.6875 -0.4375 0
-0.6875 -0.5 0
-0.625 -0.5 0
-0.6875 -0.4375 0
-0.625 -0.4375 0
-0.75 -0.4375 0
-0.6875 -0.4375 0
-0.75 -0.375 0
-0.6875 -0.375 0
-0.6875 -0.4375 0
-0.625 -0.4375 0
-0.6875 -0.375 0
-0.625 -0.375 0
-0.625 -0.375 0
-0.5625 -0.375 0
-0.625 -0.3125 0
-0.5625 -0.3125 0
-0.5625 -0.375 0
-0.5 -0.375 0
-0.5625 -0.3125 0
-0.5 -0.3125 0
-0.625 -0.3125 0
-0.5625 -0.3125 0
-0.625 -0.25 0
-0.5625 -0.25 0
-0.5625 -0.3125 0
-0.5 -0.3125 0
-0.5625 -0.25 0
-0.5 -0.25 0
-0.375 -0.5 0
-0.3125 -0.5 0
-0.375 -0.4375 0
-0.3125 -0.4375 0
-0.3125 -0.5 0
-0.25 -0.5 0
-0.3125 -0.4375 0
-0.25 -0.4375 0
-0.375 -0.4375 0
-0.3125 -0.4375 0
-0.375 -0.375 0
-0.3125 -0.375 0
-0.3125 -0.4375 0
-0.25 -0.4375 0
-0.3125 -0.375 0
-0.25 -0.375 0
-0.5 -0.375 0
-0.4375 -0.375 0
-0.5 -0.3125 0
-0.4375 -0.3125 0
-0.4375 -0.375 0
-0.375 -0.375 0
-0.4375 -0.3125 0
-0.375 -0.3125 0
-0.5 -0.3125 0
-0.4375 -0.3125 0
-0.5 -0.25 0
-0.4375 -0.25 0
-0.4375 -0.3125 0
-0.375 -0.3125 0
-0.4375 -0.25 0
-0.375 -0.25 0
-0.25 -0.5 0
-0.1875 -0.5 0
-0.25 -0.4375 0
-0.1875 -0.4375 0
-0.1875 -0.5 0
-0.125 -0.5 0
-0.1875 -0.4375 0
-0.125 -0.4375 0
-0.25 -0.4375 0
-0.1875 -0.4375 0
-0.25 -0.375 0
-0.1875 -0.375 0
-0.1875 -0.4375 0
-0.125 -0.4375 0
-0.1875 -0.375 0
-0.125 -0.375 0
-0.625 0.25 0
-0.5625 0.25 0
-0.625 0.3125 0
-0.5625 0.3125 0
-0.5625 0.25 0
-0.5 0.25 0
-0.5625 0.3125 0
-0.5 0.3125 0
-0.625 0.3125 0
-0.5625 0.3125 0
-0.625 0.375 0
-0.5625 0.375 0
[...]
POINT_DATA 1456
VECTORS gradient double
-0.0039934 -0.00411574 0
-0.00431624 -0.000124311 0
-0.00015753 -0.00412651 0
0.00010098 -4.41912e-05 0
0.0945139 -0.303871 0
-1.15683 1.14316 0
-0.031559 0.0327553 0
0.298475 -0.131122 0
1.15602 1.16192 0
-0.133066 -0.300951 0
-0.305539 -0.130724 0
0.0367074 0.0371906 0
-0.0321582 -0.0539834 0
0.277091 0.117061 0
0.105378 0.295176 0
-1.15205 -1.15528 0
-0.303228 0.118327 0
0.0885401 -0.0675353 0
1.15192 -1.17675 0
-0.191612 0.295763 0
-0.0339091 -0.0333772 0
0.290156 0.116046 0
0.0801264 0.290816 0
-1.13974 -1.13308 0
-0.309031 0.105827 0
0.0399399 -0.0319144 0
1.14072 -1.14906 0
-0.131006 0.279524 0
-0.0468537 -0.0313119 0
0.29032 0.0961552 0
0.117363 0.300818 0
-1.15578 -1.15422 0
-0.289209 0.0825364 0
0.142796 -0.0687245 0
1.12726 -1.14378 0
-0.254001 0.290809 0
0.116235 -0.300787 0
-1.17833 1.15337 0
-0.0679536 0.0920642 0
0.296275 -0.189342 0
1.15948 1.15248 0
-0.256694 -0.297572 0
-0.296841 -0.175238 0
0.159444 0.137364 0
0.105212 -0.301862 0
-1.15303 1.1313 0
-0.085181 0.132679 0
0.293781 -0.26 0
1.14534 1.15619 0
-0.172881 -0.301399 0
-0.298639 -0.262314 0
0.13448 0.166236 0
0.0691946 0.0720249 0
0.0043589 -0.0644417 0
-0.0655731 0.00266891 0
-0.0180533 -0.0175408 0
-0.0126908 0.0387192 0
-0.00133684 0.121725 0
-0.02017 -0.0119752 0
-0.00744852 -0.0351989 0
0.0377469 -0.0150126 0
-0.0118334 -0.019842 0
0.121142 -0.00248074 0
-0.0338071 -0.00694194 0
-0.00262641 -0.00289308 0
-0.00374694 -0.00503074 0
-0.00446561 -0.0036504 0
-0.00391134 -0.00385075 0
-0.00727089 0.123305 0
0.00885974 0.0368227 0
0.000119112 -0.035539 0
0.0115636 -0.0140829 0
-0.00803335 -0.0616286 0
-0.0234052 0.0484384 0
0.00547247 -0.00597981 0
-0.00487311 0.000235743 0
-0.00427989 -0.00508555 0
-0.0071416 -0.00398642 0
-0.00396798 -0.00380753 0
-0.00417776 -0.0020976 0
-0.00749305 -0.00173116 0
-0.00558186 0.00154072 0
-0.00417089 -0.00253989 0
-0.00431467 2.82506e-05 0
0.123 -0.0079971 0
-0.0341858 0.000726224 0
0.0369681 0.011756 0
-0.0135626 0.0113441 0
-0.00458993 -0.0040484 0
-0.00368049 -0.00395448 0
-0.00418049 -0.00681553 0
-0.00234896 -0.00425847 0
-0.0598404 -0.00770265 0
-0.00842742 0.00467229 0
0.0490695 -0.0232248 0
0.00205769 -0.00504606 0
-0.00345915 -0.00780277 0
-0.00274591 -0.00433526 0
0.00261694 -0.00568131 0
7.66947e-05 -0.00405894 0
-0.0271529 -0.0241746 0
-2.02652 -0.0324472 0
-0.00590592 0.166349 0
-1.36916 0.24362 0
-0.0319217 0.175563 0
-1.23389 0.269995 0
-0.0928786 0.499023 0
-0.172528 -0.448264 0
-1.48579 -0.138042 0
-6.80261 3.49201 0
-0.0554572 0.296129 0
-1.46892 2.39186 0
-8.19127 3.7941 0
-11.1727 11.1211 0
-1.87396 1.86574 0
-3.78517 8.20858 0
11.13 11.1208 0
8.20073 3.80479 0
3.80503 8.21014 0
1.84388 1.8549 0
2.01852 -0.0342198 0
-0.147552 -0.015015 0
1.37782 0.254283 0
-0.118952 0.186607 0
6.79657 3.5008 0
1.48375 -0.138228 0
1.44849 2.37253 0
0.0399942 0.292148 0
1.25229 0.284451 0
-0.0710018 0.195772 0
0.160394 -0.399746 0
0.0558819 0.481394 0
-1.85749 -1.86152 0
-3.79775 -8.27199 0
-8.22305 -3.81978 0
-11.1659 -11.1371 0
-0.0185328 0.132767 0
0.182925 0.103241 0
-0.0384761 -2.03374 0
0.249219 -1.3937 0
0.191981 0.0556625 0
0.479962 -0.07193 0
0.279253 -1.26877 0
-0.404737 -0.179081 0
-0.142748 -1.50024 0
0.286019 -0.0587063 0
3.49498 -6.8122 0
2.3628 -1.46397 0
3.79876 -8.21615 0
1.84707 -1.85857 0
11.116 -11.1456 0
8.2054 -3.81921 0
-1.88901 -1.85579 0
-3.78912 -8.22388 0
-8.24716 -3.7856 0
-11.156 -11.1677 0
3.80443 -8.21916 0
1.8467 -1.8543 0
11.1211 -11.1614 0
8.25667 -3.79379 0
-1.87803 -1.87149 0
-3.80545 -8.18864 0
-8.22102 -3.78269 0
-11.1325 -11.1703 0
3.77576 -8.2445 0
1.84208 -1.8867 0
11.1597 -11.1528 0
8.21655 -3.78316 0
-8.22274 3.80593 0
-11.1374 11.1302 0
-1.86527 1.84609 0
-3.82298 8.21222 0
11.1471 11.123 0
8.21369 3.80415 0
3.78098 8.24487 0
1.84704 1.84697 0
-8.23271 3.77181 0
-11.1674 11.1404 0
-1.8718 1.85683 0
-3.77501 8.20617 0
11.1237 11.1545 0
8.20721 3.77023 0
3.79969 8.18494 0
1.86549 1.85644 0
-2.38301 1.44362 0
-3.48928 6.77331 0
-0.266479 0.0473129 0
0.128014 1.50714 0
0.394745 0.167712 0
-0.285328 1.26222 0
-0.489115 0.0569936 0
-0.195423 -0.0569048 0
-0.237789 1.38518 0
-0.0295375 1.90596 0
-0.19229 -0.0827731 0
-0.0282227 -0.153971 0
3.49121 6.80607 0
2.3679 1.46127 0
-0.154679 1.49089 0
0.290984 0.0339456 0
0.0244061 1.90704 0
0.224502 1.38983 0
0.00334346 -0.135079 0
0.172199 -0.100426 0
0.270475 1.2602 0
-0.40657 0.155235 0
0.185426 -0.0764236 0
0.478265 0.0542745 0
-0.0947858 -0.47333 0
-0.165184 0.40029 0
-0.0302246 -0.204299 0
-1.23926 -0.25778 0
-0.0414476 -0.312426 0
-1.46433 -2.39578 0
-1.48665 0.135242 0
-6.81692 -3.51198 0
-0.00410258 -0.189384 0
-1.38841 -0.219125 0
-0.0236482 -0.0229292 0
-1.89636 -0.0333908 0
1.4539 -2.38049 0
0.0169984 -0.307918 0
6.80085 -3.50554 0
1.49439 0.144679 0
0.133743 0.43642 0
0.0616305 -0.467979 0
1.24509 -0.271733 0
0.096874 -0.213714 0
1.37294 -0.228439 0
-0.0397397 -0.207109 0
1.88496 -0.0345648 0
0.0145916 -0.00734973 0
-0.511587 -0.0848226 0
-0.18626 -0.0242117 0
0.430651 -0.186413 0
-0.265024 -1.2198 0
-0.178218 0.006372 0
-0.0162146 -0.0211411 0
-0.223576 -1.36682 0
-0.0345801 -1.89397 0
-0.260846 -0.0692055 0
0.121868 -1.48925 0
-2.40982 -1.43069 0
-3.48624 -6.78873 0
0.00987855 -0.021458 0
0.175878 -0.00305732 0
0.0187008 -1.8925 0
0.204813 -1.38579 0
0.190772 -0.0291708 0
0.459069 -0.0943744 0
0.243494 -1.23661 0
-0.414069 -0.163082 0
-0.149559 -1.48395 0
0.298837 -0.039473 0
3.49666 -6.81315 0
2.38055 -1.46137 0
-0.512425 -0.0912389 0
-0.188246 -0.0289545 0
0.435455 -0.17016 0
-0.281791 -1.2309 0
-0.178901 -0.00295367 0
0.0133627 -0.0225902 0
-0.255258 -1.36632 0
0.0221738 -2.02293 0
-0.309071 -0.0531273 0
0.126347 -1.48286 0
-2.40419 -1.46651 0
-3.50339 -6.79996 0
-0.070761 -0.486323 0
-0.181004 0.396911 0
0.0428088 -0.19224 0
-1.27571 -0.28256 0
-0.06066 -0.264221 0
-1.45608 -2.38013 0
-1.52058 0.130715 0
-6.78587 -3.48672 0
0.0686587 -0.189067 0
-1.39862 -0.235024 0
0.139324 -0.024669 0
-1.91999 -0.0266662 0
1.41738 -2.3974 0
0.0584837 -0.24851 0
6.78174 -3.48079 0
1.48829 0.131993 0
0.173663 0.454198 0
0.0981638 -0.450966 0
1.21661 -0.263603 0
0.0876856 -0.201736 0
1.36798 -0.22333 0
-0.0388953 -0.195895 0
1.8909 -0.0303554 0
0.024098 -0.00904238 0
0.12037 0.00693395 0
-1.92098 0.0272978 0
0.0848118 0.17583 0
-1.40446 0.227011 0
0.0612076 0.188992 0
-1.27539 0.272898 0
-0.0700895 0.483363 0
-0.172152 -0.403528 0
-1.50607 -0.151573 0
-6.81929 3.49362 0
-0.0510328 0.292849 0
-1.47326 2.36546 0
-2.38401 1.45091 0
-3.50697 6.80852 0
-0.299659 0.0294401 0
0.143923 1.49558 0
0.438304 0.14549 0
-0.26942 1.24441 0
-0.468657 0.0656058 0
-0.212692 0.0951721 0
-0.228507 1.37698 0
-0.0364051 1.891 0
-0.206327 -0.0388942 0
-0.00562713 0.0182164 0
1.88978 0.0199586 0
0.0223253 0.00804408 0
1.38965 0.212461 0
-0.0347975 0.204362 0
6.80764 3.49476 0
1.48484 -0.152898 0
1.45375 2.3723 0
0.0334751 0.295015 0
1.23533 0.250202 0
0.0934331 0.21739 0
0.154585 -0.430301 0
0.118853 0.411439 0
3.47707 6.79288 0
2.37186 1.43422 0
-0.137736 1.513 0
0.256527 0.0519172 0
0.0121721 1.89088 0
0.212697 1.37361 0
0.0112797 0.0166955 0
0.201111 -0.0312001 0
0.255216 1.24929 0
-0.431792 0.169419 0
0.202655 0.0972222 0
0.470325 0.0709217 0
-0.0233416 0.00316664 0
-1.89791 0.0198232 0
0.00254041 0.166356 0
-1.37323 0.208553 0
-0.0281092 0.174421 0
-1.22643 0.249958 0
-0.0910055 0.504508 0
-0.19809 -0.445935 0
-1.49579 -0.136733 0
-6.79719 3.46581 0
-0.08046 0.245267 0
-1.44602 2.39135 0
-2.38877 1.43563 0
-3.48698 6.7672 0
-0.273606 0.0253499 0
0.134172 1.49359 0
0.418087 0.147685 0
-0.25833 1.23158 0
-0.422808 0.0975852 0
-0.209501 0.0909207 0
-0.21428 1.37115 0
-0.0121411 1.88468 0
-0.201906 -0.036381 0
-0.0213837 0.0207545 0
1.88538 0.0129623 0
0.0127829 0.0105366 0
1.36682 0.214627 0
-0.033164 0.199143 0
6.77189 3.47548 0
1.5126 -0.140175 0
1.44542 2.3685 0
0.0405332 0.261532 0
1.24939 0.261414 0
0.101721 0.200356 0
0.156761 -0.440702 0
0.0630201 0.474412 0
3.48552 6.79813 0
2.37913 1.45242 0
-0.153993 1.47806 0
0.283849 0.0419185 0
0.0370708 1.88521 0
0.224613 1.37574 0
-0.00361744 0.0204486 0
0.194476 -0.0400161 0
0.265245 1.22076 0
-0.475059 0.156463 0
0.205384 0.0931608 0
0.446721 0.10585 0
-0.475593 -0.0702761 0
-0.166674 0.0816028 0
0.353597 -0.210866 0
-0.177873 -1.3722 0
-0.165188 0.109618 0
-0.0596056 0.106933 0
-0.159273 -1.11934 0
-0.140429 -1.94799 0
-0.354606 -0.0693052 0
-0.423009 -1.51876 0
-2.30791 -1.42117 0
-3.0736 -6.71086 0
-0.411549 -1.26168 0
0.618352 -2.40297 0
-2.97151 -6.6728 0
-1.1787 -9.86494 0
-0.105273 -0.449449 0
-0.197259 0.367842 0
-0.0316937 -0.159387 0
-1.35899 -0.148828 0
-0.0549437 -0.365416 0
-1.44484 -2.31355 0
-1.5159 -0.431434 0
-6.69812 -3.05761 0
-0.0274824 -0.161689 0
-1.12099 -0.130658 0
-0.0336302 -0.0697127 0
-1.92035 -0.136445 0
-1.27537 -0.419323 0
-6.65212 -2.94338 0
-2.38777 0.633077 0
-9.87548 -1.20306 0
1.40642 -2.30451 0
0.0549775 -0.351932 0
6.69562 -3.06959 0
1.50403 -0.419464 0
0.196498 0.356276 0
0.0563572 -0.472844 0
1.3575 -0.17432 0
-0.0957925 -0.163514 0
6.65755 -2.96744 0
1.24694 -0.407953 0
9.84933 -1.17403 0
2.38774 0.622551 0
1.10463 -0.155667 0
-0.123808 -0.161985 0
1.93278 -0.136211 0
-0.121654 -0.0561086 0
0.0591051 -0.0291111 0
0.1549 -0.0213705 0
0.126344 -1.91703 0
0.122287 -1.11793 0
0.152985 -0.025696 0
0.452714 -0.098459 0
0.140629 -1.35682 0
-0.372514 -0.199533 0
-0.642791 -2.38453 0
0.411626 -1.27241 0
1.19287 -9.87273 0
2.93377 -6.64994 0
0.424141 -1.51376 0
0.358535 -0.0568886 0
3.04816 -6.69587 0
2.30221 -1.44395 0
-17.5877 0.41461 0
-11.6304 0.526048 0
-15.8876 7.35036 0
-11.4554 10.3902 0
-16.1841 7.91956 0
-11.2803 11.2257 0
-11.3676 11.3857 0
-7.9134 16.1743 0
-10.471 11.4592 0
-0.473651 11.7691 0
-7.3631 15.8581 0
-0.343497 17.5701 0
11.78 0.411061 0
17.5715 0.351528 0
11.4666 10.432 0
15.8581 7.37303 0
0.406453 11.7936 0
10.4301 11.4602 0
0.337552 17.571 0
7.36008 15.8675 0
11.2398 11.2385 0
16.1753 7.91897 0
7.90886 16.1762 0
11.3699 11.377 0
-11.3437 -11.3421 0
-7.8881 -16.2459 0
-16.1722 -7.90752 0
-11.2708 -11.2563 0
-7.35778 -15.9132 0
-0.339941 -17.5508 0
-10.4732 -11.4813 0
-0.479105 -11.7686 0
-15.8754 -7.33896 0
-11.4319 -10.4253 0
-17.5877 -0.411944 0
-11.6331 -0.54537 0
0.346934 -17.5879 0
7.36832 -15.8741 0
0.406696 -11.7969 0
10.4277 -11.4831 0
7.91426 -16.1914 0
11.3721 -11.3856 0
11.2342 -11.2564 0
16.1718 -7.92481 0
11.4558 -10.4467 0
15.8631 -7.37606 0
11.7899 -0.423658 0
17.5674 -0.353915 0
-11.3386 -11.3566 0
-7.90898 -16.1848 0
-16.2513 -7.89609 0
-11.2891 -11.274 0
-7.38057 -15.7611 0
-0.330186 -17.6622 0
-10.5458 -11.1295 0
-0.432496 -12.2713 0
-15.8198 -7.37857 0
-11.1561 -10.5329 0
-17.6393 -0.318993 0
-12.2687 -0.429542 0
-10.3945 -10.3667 0
-1.21179 -11.3813 0
-11.3779 -1.21945 0
0.0924737 0.115913 0
0.39672 -17.5817 0
7.32268 -15.8703 0
0.524257 -11.6274 0
10.4074 -11.4272 0
7.89134 -16.1672 0
11.326 -11.3391 0
11.2385 -11.266 0
16.2294 -7.88345 0
11.464 -10.4686 0
15.8968 -7.3532 0
11.7516 -0.474745 0
17.5344 -0.335357 0
-11.397 -11.3654 0
-7.93029 -16.1819 0
-16.1858 -7.91138 0
-11.2366 -11.2784 0
-7.36105 -15.8854 0
-0.424645 -17.5856 0
-10.401 -11.4536 0
-0.536061 -11.6287 0
-15.8696 -7.3611 0
-11.47 -10.4692 0
-17.5817 -0.341781 0
-11.7801 -0.472167 0
0.308991 -17.6371 0
7.36929 -15.8176 0
0.419554 -12.267 0
10.5239 -11.1546 0
7.88696 -16.2493 0
11.3478 -11.3358 0
11.2653 -11.2882 0
16.1769 -7.90576 0
1.20932 -11.3762 0
10.3576 -10.3931 0
-0.126396 0.0936402 0
11.3722 -1.21166 0
11.1208 -10.545 0
15.7535 -7.37743 0
12.2631 -0.43558 0
17.6557 -0.325492 0
-17.5826 0.339243 0
-11.8045 0.407911 0
-15.8793 7.36159 0
-11.4714 10.4312 0
-16.1878 7.91032 0
-11.2495 11.2408 0
-11.3886 11.3719 0
-7.9302 16.1754 0
-10.4428 11.4673 0
-0.42215 11.7807 0
-7.38383 15.8586 0
-0.363195 17.5742 0
11.6192 0.520994 0
17.5755 0.401132 0
11.4231 10.3929 0
15.8667 7.33627 0
0.460976 11.765 0
10.4564 11.4481 0
0.316511 17.5728 0
7.3364 15.8533 0
11.2612 11.2246 0
16.1651 7.9045 0
7.88387 16.1718 0
11.3429 11.377 0
-17.6687 0.31482 0
-12.277 0.411495 0
-15.7696 7.37177 0
-11.1366 10.5142 0
-11.3854 1.19028 0
0.112791 -0.107843 0
-10.3702 10.3647 0
-1.2208 11.3662 0
-16.1954 7.89964 0
-11.2822 11.258 0
-11.3734 11.3598 0
-7.90833 16.1802 0
-10.5343 11.1265 0
-0.42983 12.2565 0
-7.37607 15.7614 0
-0.314483 17.6516 0
11.7654 0.456407 0
17.5665 0.327103 0
11.4564 10.453 0
15.8554 7.34635 0
0.52288 11.6121 0
10.3872 11.4373 0
0.412725 17.5695 0
7.3482 15.8682 0
11.2229 11.2622 0
16.1715 7.8966 0
7.91776 16.1647 0
11.3839 11.3511 0
-2.55429 -0.772963 0
-4.97023 1.90625 0
-2.15117 0.293093 0
-4.52569 0.962556 0
-4.7261 0.591498 0
-10.5623 -1.6166 0
-4.47338 1.15089 0
-9.27845 2.2501 0
-2.37158 0.294157 0
-4.83323 1.07306 0
-1.5844 1.00536 0
-3.13073 0.0948021 0
-4.83688 1.20693 0
-9.33501 2.38515 0
-2.96696 1.08736 0
-6.30622 4.23504 0
-11.3439 0.395018 0
-15.875 0.384302 0
-9.92341 2.4042 0
-14.1799 4.40964 0
-16.331 0.246104 0
-17.5311 0.366623 0
-14.5322 4.15966 0
-15.8192 8.07568 0
-9.99911 2.57086 0
-14.9373 4.74863 0
-6.94172 4.86327 0
-10.9549 6.98459 0
-15.2076 4.52968 0
-16.0459 8.64458 0
-10.879 4.86182 0
-11.0852 13.0243 0
-13.0624 11.1048 0
-8.63817 16.0377 0
-4.93328 10.8185 0
-4.50444 15.1631 0
-8.08921 15.7928 0
-0.390388 17.5185 0
-4.14599 14.5355 0
-0.234418 16.3374 0
-6.96879 10.8907 0
-4.8054 14.889 0
-4.86028 6.95391 0
-2.64776 10.0501 0
-4.48556 14.1845 0
-0.258759 15.8953 0
-2.50636 9.74845 0
-0.119269 10.9828 0
17.5229 0.35497 0
16.3214 0.229522 0
15.7946 8.07724 0
14.5176 4.16438 0
15.8667 0.37143 0
11.3151 0.403694 0
14.1648 4.42155 0
9.90957 2.41167 0
16.0382 8.62636 0
15.2093 4.51879 0
11.0903 13.0181 0
10.8729 4.86316 0
14.9431 4.74614 0
9.99204 2.56771 0
10.9469 6.9859 0
6.90778 4.87364 0
0.356865 17.5198 0
8.06618 15.7987 0
0.22417 16.3362 0
4.12963 14.5397 0
8.62076 16.0389 0
12.9957 11.0951 0
4.48507 15.177 0
4.91279 10.8605 0
0.226701 15.8948 0
4.4584 14.1982 0
0.11989 10.9813 0
2.50883 9.74964 0
4.77714 14.9081 0
6.9898 10.9381 0
2.65138 10.0437 0
4.86131 6.93855 0
10.5358 -1.61702 0
4.76075 0.593546 0
9.26287 2.26533 0
4.4541 1.15018 0
4.99692 1.89897 0
2.51694 -0.803856 0
4.51428 0.958266 0
2.12691 0.304328 0
9.32725 2.3898 0
4.84478 1.20352 0
6.2724 4.23717 0
2.94999 1.08812 0
4.84136 1.06443 0
2.37449 0.299463 0
3.11432 0.113695 0
1.55737 0.995514 0
-4.71697 -6.23191 0
-2.73253 -11.1144 0
-6.88229 -10.7265 0
-4.84449 -15.102 0
-2.86698 -9.98798 0
0.0673713 -10.0323 0
-4.65319 -14.3833 0
-0.160896 -15.7941 0
-4.91352 -10.6483 0
-4.45334 -15.3912 0
-13.0015 -11.0686 0
-8.61092 -16.1133 0
-4.16529 -14.7228 0
-0.259711 -16.218 0
-8.09462 -15.8506 0
-0.409614 -17.5026 0
-6.95134 -4.87502 0
-10.9841 -7.00472 0
-10.0334 -2.67542 0
-14.9069 -4.80329 0
-10.901 -4.92127 0
-11.0729 -12.9803 0
-15.1802 -4.50941 0
-16.044 -8.6549 0
-9.76257 -2.5239 0
-14.2158 -4.47382 0
-10.9828 -0.145498 0
-15.9067 -0.25156 0
-14.5541 -4.14201 0
-15.81 -8.08411 0
-16.3493 -0.247107 0
-17.5339 -0.395099 0
-0.808127 -2.53225 0
0.299831 -2.14237 0
1.89451 -5.01237 0
0.953412 -4.52992 0
0.294973 -2.38992 0
0.990966 -1.57332 0
1.05957 -4.8571 0
0.108564 -3.13048 0
0.58913 -4.77619 0
1.14539 -4.46974 0
-1.62178 -10.5514 0
2.26022 -9.27858 0
1.19873 -4.86052 0
1.08281 -2.96616 0
2.38467 -9.34299 0
4.23136 -6.28826 0
0.399012 -11.3307 0
2.40657 -9.92526 0
0.366734 -15.8826 0
4.41657 -14.1806 0
2.5626 -10.0078 0
4.86774 -6.92358 0
4.74116 -14.9588 0
6.98036 -10.9623 0
0.224815 -16.3373 0
4.15937 -14.5334 0
0.350345 -17.5392 0
8.07252 -15.8107 0
4.51376 -15.225 0
4.85788 -10.8883 0
8.62162 -16.0543 0
13.0133 -11.1059 0
11.0901 -13.0114 0
10.8553 -4.9278 0
16.0345 -8.63675 0
15.1724 -4.50031 0
10.933 -7.00476 0
6.93329 -4.8758 0
14.9035 -4.79242 0
10.0391 -2.66598 0
15.7943 -8.08219 0
14.5352 -4.14489 0
17.5161 -0.373264 0
16.3324 -0.239683 0
14.1937 -4.4737 0
9.74488 -2.52343 0
15.8911 -0.242237 0
10.9774 -0.134449 0
-4.88334 -6.96013 0
-2.64355 -10.0316 0
-6.95501 -10.92 0
-4.81427 -14.8846 0
-2.49904 -9.74988 0
-0.121906 -10.9845 0
-4.48818 -14.17 0
-0.270743 -15.9227 0
-4.89731 -10.8476 0
-4.51509 -15.163 0
-13.0527 -11.0886 0
-8.63102 -16.0559 0
-4.15137 -14.5232 0
-0.250805 -16.3647 0
-8.08564 -15.7007 0
-0.40597 -17.6221 0
-6.20009 -4.68722 0
-10.7475 -6.88766 0
-11.121 -2.7077 0
-15.0607 -4.82895 0
-10.6557 -4.93764 0
-11.0585 -12.9907 0
-15.3558 -4.44283 0
-16.1154 -8.6184 0
-10.0373 -2.83821 0
-14.3582 -4.63079 0
-10.0173 0.0437186 0
-15.8219 -0.168414 0
-14.6969 -4.14245 0
-15.7493 -8.09409 0
-16.2426 -0.262988 0
-17.5963 -0.429216 0
0.129235 -10.9779 0
2.50812 -9.75821 0
0.234827 -15.9014 0
4.45759 -14.2111 0
2.65967 -10.0291 0
4.85954 -6.94747 0
4.78709 -14.9022 0
6.989 -10.9798 0
0.230269 -16.344 0
4.12576 -14.5494 0
0.377656 -17.5284 0
8.0673 -15.8052 0
4.4932 -15.1755 0
4.90566 -10.8967 0
8.63814 -16.0392 0
12.9641 -11.0684 0
11.0527 -12.9968 0
10.6328 -4.9093 0
16.0968 -8.60627 0
15.3753 -4.44886 0
10.7109 -6.87819 0
6.21654 -4.71282 0
15.0861 -4.84002 0
11.099 -2.72814 0
15.8342 -8.09002 0
14.707 -4.16083 0
17.4863 -0.404994 0
16.2021 -0.255017 0
14.3675 -4.64875 0
9.97258 -2.86261 0
15.7782 -0.156215 0
10.0166 0.0720249 0
-4.8746 -6.93909 0
-2.58159 -9.99644 0
-6.99579 -10.9524 0
-4.75929 -14.9348 0
-2.4149 -9.92072 0
-0.405113 -11.3412 0
-4.42028 -14.1774 0
-0.394328 -15.8725 0
-4.87308 -10.8765 0
-4.54035 -15.2052 0
-13.0357 -11.083 0
-8.65528 -16.0437 0
-4.1703 -14.5297 0
-0.256171 -16.3285 0
-8.08634 -15.817 0
-0.376597 -17.5289 0
-6.96636 -4.85763 0
-10.9027 -6.96663 0
-10.0627 -2.64533 0
-14.9011 -4.80327 0
-10.8304 -4.93108 0
-11.1161 -13.0599 0
-15.1752 -4.50231 0
-16.0492 -8.63612 0
-9.76112 -2.50395 0
-14.1966 -4.48344 0
-10.9957 -0.117086 0
-15.9076 -0.256871 0
-14.5476 -4.14387 0
-15.8043 -8.08717 0
-16.3497 -0.232528 0
-17.5302 -0.388695 0
-0.0537525 -10.0145 0
2.82863 -10.0347 0
0.158436 -15.8194 0
4.62139 -14.3557 0
2.69813 -11.1187 0
4.67726 -6.19749 0
4.81959 -15.058 0
6.87831 -10.7443 0
0.252965 -16.2401 0
4.1329 -14.6944 0
0.419283 -17.5941 0
8.08486 -15.747 0
4.43332 -15.3531 0
4.92875 -10.6524 0
8.60926 -16.1134 0
12.9826 -11.0557 0
11.0798 -13.0493 0
10.8396 -4.89354 0
16.0479 -8.62852 0
15.156 -4.51191 0
10.9119 -6.95106 0
6.95334 -4.87768 0
14.8775 -4.81103 0
10.0257 -2.63945 0
15.6929 -8.08319 0
14.5162 -4.14827 0
17.615 -0.40407 0
16.3583 -0.248483 0
14.163 -4.485 0
9.74405 -2.495 0
15.9163 -0.268333 0
10.9793 -0.11926 0
-10.9943 0.122066 0
-15.9071 0.228574 0
-9.76299 2.51064 0
-14.2108 4.45992 0
-16.3485 0.226045 0
-17.5314 0.358542 0
-14.5523 4.13114 0
-15.8105 8.06736 0
-10.0573 2.6532 0
-14.9206 4.77864 0
-6.95291 4.86187 0
-10.951 6.9907 0
-15.1896 4.48655 0
-16.0505 8.62195 0
-10.8735 4.91368 0
-11.1066 12.9956 0
-13.0332 11.0932 0
-8.62875 16.0393 0
-4.88855 10.8608 0
-4.5129 15.1822 0
-8.07901 15.7945 0
-0.369286 17.525 0
-4.15718 14.538 0
-0.249025 16.3419 0
-6.99596 10.933 0
-4.79853 14.9122 0
-4.89512 6.93072 0
-2.65767 10.0363 0
-4.48171 14.1927 0
-0.246636 15.9003 0
-2.51836 9.74463 0
-0.129909 10.9816 0
17.521 0.379442 0
16.3374 0.232495 0
15.799 8.06907 0
14.5432 4.1275 0
15.8948 0.237169 0
10.9725 0.131797 0
14.2049 4.45929 0
9.75295 2.50932 0
16.0324 8.63995 0
15.169 4.49491 0
11.0621 12.9665 0
10.8896 4.90748 0
14.8958 4.78876 0
10.0233 2.66079 0
10.9728 6.9904 0
6.94084 4.86001 0
0.377979 17.5235 0
8.07199 15.7918 0
0.207681 16.3411 0
4.12683 14.5423 0
8.61904 16.0398 0
13.0062 11.1002 0
4.48202 15.1722 0
4.92017 10.8512 0
0.236996 15.8985 0
4.47263 14.1942 0
0.107305 10.9798 0
2.49535 9.75021 0
4.79059 14.8985 0
6.95166 10.9265 0
2.63495 10.044 0
4.85664 6.94472 0
-10.9894 0.105613 0
-15.9279 0.253974 0
-9.75541 2.48208 0
-14.1759 4.47098 0
-16.3699 0.233928 0
-17.6277 0.388475 0
-14.5291 4.13398 0
-15.7072 8.06783 0
-10.0367 2.62653 0
-14.8902 4.79704 0
-6.96534 4.86609 0
-10.9259 6.93733 0
-15.1685 4.49762 0
-16.0626 8.6131 0
-10.8534 4.8802 0
-11.097 13.0365 0
-13.0067 11.0762 0
-8.64307 16.0457 0
-4.96186 10.8399 0
-4.48834 15.1462 0
-8.0902 15.6926 0
-0.415425 17.6071 0
-4.12604 14.515 0
-0.229195 16.3506 0
-6.96897 10.9241 0
-4.8015 14.8695 0