# vtk DataFile Version 3.0
#This file was generated by the deal.II library on 2020/8/22 at 21:53:33
ASCII
DATASET UNSTRUCTURED_GRID

POINTS 224 double
-1 -1 0
-1 -0.5 0
-0.5 -1 0
-0.5 -0.5 0
-1 -1 0
-0.5 -1 0
-1 -0.5 0
-0.5 -0.5 0
-0.5 -1 0
-0.5 -0.5 0
0 -1 0
0 -0.5 0
-0.5 -1 0
0 -1 0
-0.5 -0.5 0
0 -0.5 0
0 -1 0
0 -0.5 0
0.5 -1 0
0.5 -0.5 0
0 -1 0
0.5 -1 0
0 -0.5 0
0.5 -0.5 0
0.5 -1 0
0.5 -0.5 0
1 -1 0
1 -0.5 0
0.5 -1 0
1 -1 0
0.5 -0.5 0
1 -0.5 0
0 -0.5 0
0 0 0
0.5 -0.5 0
0.5 0 0
0 -0.5 0
0.5 -0.5 0
0 0 0
0.5 0 0
0.5 -0.5 0
0.5 0 0
1 -0.5 0
1 0 0
0.5 -0.5 0
1 -0.5 0
0.5 0 0
1 0 0
-1 0.5 0
-1 1 0
-0.5 0.5 0
-0.5 1 0
-1 0.5 0
-0.5 0.5 0
-1 1 0
-0.5 1 0
-0.5 0.5 0
-0.5 1 0
0 0.5 0
0 1 0
-0.5 0.5 0
0 0.5 0
-0.5 1 0
0 1 0
0 0 0
0 0.5 0
0.5 0 0
0.5 0.5 0
0 0 0
0.5 0 0
0 0.5 0
0.5 0.5 0
0.5 0 0
0.5 0.5 0
1 0 0
1 0.5 0
0.5 0 0
1 0 0
0.5 0.5 0
1 0.5 0
0 0.5 0
0 1 0
0.5 0.5 0
0.5 1 0
0 0.5 0
0.5 0.5 0
0 1 0
0.5 1 0
0.5 0.5 0
0.5 1 0
1 0.5 0
1 1 0
0.5 0.5 0
1 0.5 0
0.5 1 0
1 1 0
-1 -0.5 0
-1 -0.25 0
-0.75 -0.5 0
-0.75 -0.25 0
-1 -0.5 0
-0.75 -0.5 0
-1 -0.25 0
-0.75 -0.25 0
-0.75 -0.5 0
-0.75 -0.25 0
-0.5 -0.5 0
-0.5 -0.25 0
-0.75 -0.5 0
-0.5 -0.5 0
-0.75 -0.25 0
-0.5 -0.25 0
-1 -0.25 0
-1 0 0
-0.75 -0.25 0
-0.75 0 0
-1 -0.25 0
-0.75 -0.25 0
-1 0 0
-0.75 0 0
-0.75 -0.25 0
-0.75 0 0
-0.5 -0.25 0
-0.5 0 0
-0.75 -0.25 0
-0.5 -0.25 0
-0.75 0 0
-0.5 0 0
-0.5 -0.5 0
-0.5 -0.25 0
-0.25 -0.5 0
-0.25 -0.25 0
-0.5 -0.5 0
-0.25 -0.5 0
-0.5 -0.25 0
-0.25 -0.25 0
-0.25 -0.5 0
-0.25 -0.25 0
0 -0.5 0
0 -0.25 0
-0.25 -0.5 0
0 -0.5 0
-0.25 -0.25 0
0 -0.25 0
-0.5 -0.25 0
-0.5 0 0
-0.25 -0.25 0
-0.25 0 0
-0.5 -0.25 0
-0.25 -0.25 0
-0.5 0 0
-0.25 0 0
-0.25 -0.25 0
-0.25 0 0
0 -0.25 0
0 0 0
-0.25 -0.25 0
0 -0.25 0
-0.25 0 0
0 0 0
-1 0 0
-1 0.25 0
-0.75 0 0
-0.75 0.25 0
-1 0 0
-0.75 0 0
-1 0.25 0
-0.75 0.25 0
-0.75 0 0
-0.75 0.25 0
-0.5 0 0
-0.5 0.25 0
-0.75 0 0
-0.5 0 0
-0.75 0.25 0
-0.5 0.25 0
-1 0.25 0
-1 0.5 0
-0.75 0.25 0
-0.75 0.5 0
-1 0.25 0
-0.75 0.25 0
-1 0.5 0
-0.75 0.5 0
-0.75 0.25 0
-0.75 0.5 0
-0.5 0.25 0
-0.5 0.5 0
-0.75 0.25 0
-0.5 0.25 0
-0.75 0.5 0
-0.5 0.5 0
-0.5 0 0
-0.5 0.25 0
-0.25 0 0
-0.25 0.25 0
-0.5 0 0
-0.25 0 0
-0.5 0.25 0
-0.25 0.25 0
-0.25 0 0
-0.25 0.25 0
0 0 0
0 0.25 0
-0.25 0 0
0 0 0
-0.25 0.25 0
0 0.25 0
-0.5 0.25 0
-0.5 0.5 0
-0.25 0.25 0
-0.25 0.5 0
-0.5 0.25 0
-0.25 0.25 0
-0.5 0.5 0
-0.25 0.5 0
-0.25 0.25 0
-0.25 0.5 0
0 0.25 0
0 0.5 0
-0.25 0.25 0
0 0.25 0
-0.25 0.5 0
0 0.5 0

CELLS 112 336
2	0	1
2	2	3
2	4	5
2	6	7
2	8	9
2	10	11
2	12	13
2	14	15
2	16	17
2	18	19
2	20	21
2	22	23
2	24	25
2	26	27
2	28	29
2	30	31
2	32	33
2	34	35
2	36	37
2	38	39
2	40	41
2	42	43
2	44	45
2	46	47
2	48	49
2	50	51
2	52	53
2	54	55
2	56	57
2	58	59
2	60	61
2	62	63
2	64	65
2	66	67
2	68	69
2	70	71
2	72	73
2	74	75
2	76	77
2	78	79
2	80	81
2	82	83
2	84	85
2	86	87
2	88	89
2	90	91
2	92	93
2	94	95
2	96	97
2	98	99
2	100	101
2	102	103
2	104	105
2	106	107
2	108	109
2	110	111
2	112	113
2	114	115
2	116	117
2	118	119
2	120	121
2	122	123
2	124	125
2	126	127
2	128	129
2	130	131
2	132	133
2	134	135
2	136	137
2	138	139
2	140	141
2	142	143
2	144	145
2	146	147
2	148	149
2	150	151
2	152	153
2	154	155
2	156	157
2	158	159
2	160	161
2	162	163
2	164	165
2	166	167
2	168	169
2	170	171
2	172	173
2	174	175
2	176	177
2	178	179
2	180	181
2	182	183
2	184	185
2	186	187
2	188	189
2	190	191
2	192	193
2	194	195
2	196	197
2	198	199
2	200	201
2	202	203
2	204	205
2	206	207
2	208	209
2	210	211
2	212	213
2	214	215
2	216	217
2	218	219
2	220	221
2	222	223

CELL_TYPES 112
 3 3 3 3 3 3 3 3 3 3 3 3 3 3 3 3 3 3 3 3 3 3 3 3 3 3 3 3 3 3 3 3 3 3 3 3 3 3 3 3 3 3 3 3 3 3 3 3 3 3 3 3 3 3 3 3 3 3 3 3 3 3 3 3 3 3 3 3 3 3 3 3 3 3 3 3 3 3 3 3 3 3 3 3 3 3 3 3 3 3 3 3 3 3 3 3 3 3 3 3 3 3 3 3 3 3 3 3 3 3 3 3
POINT_DATA 224
SCALARS u_hat double 1
LOOKUP_TABLE default
10.5725 11.9114 7.83633 13.6786 9.63017 8.8988 10.2003 13.2773 7.83633 13.6786 7.61594 7.98527 8.95788 7.68259 13.2914 6.61462 7.61594 7.98527 4.84686 9.15678 7.72023 6.43716 6.64628 9.24671 4.84686 9.15678 -0.00191169 0.00787946 6.46256 -0.184485 9.37234 -0.966743 7.58442 5.42405 9.28582 2.42707 6.64628 9.24671 5.37642 3.59507 9.28582 2.42707 0.00787946 -0.00191169 9.37234 -0.966743 3.58022 -0.0518179 4.65428 0.0394785 8.8499 -0.664254 3.48894 8.73503 -0.00191169 0.00787946 8.8499 -0.664254 3.54602 -0.0365485 8.64059 2.44293 0.00787946 -0.00191169 5.43054 3.13732 3.30756 1.6 5.37642 3.59507 3.19058 1.57633 3.30756 1.6 1.0917e-06 -2.925e-07 3.58022 -0.0518179 1.57251 0.0206086 3.54602 -0.0365485 1.5747 -0.0170189 3.19058 1.57633 1.0917e-06 -2.925e-07 1.5747 -0.0170189 5.59588e-16 -1.49941e-16 1.57251 0.0206086 5.59588e-16 -1.49941e-16 11.0176 9.48651 12.039 8.75295 10.2003 11.7388 9.56586 9.0255 12.039 8.75295 14.4538 7.99161 11.7388 13.2773 8.77848 9.48324 9.56793 7.71081 8.95547 7.53962 9.56586 9.0255 7.76703 7.48677 8.95547 7.53962 8.60381 7.12369 8.77848 9.48324 7.45116 7.04199 14.4538 7.99161 10.2395 7.17762 13.2914 9.953 9.4932 7.21261 10.2395 7.17762 7.58442 6.50423 9.953 6.61462 7.4617 6.56922 8.60381 7.12369 7.39024 6.30589 9.4932 7.21261 7.04643 6.19657 7.39024 6.30589 6.50423 5.42405 7.4617 6.56922 6.24367 5.42369 7.71911 5.86967 7.54398 6.02623 7.76703 7.48677 5.95352 6.11167 7.54398 6.02623 7.12593 6.14274 7.45116 7.04199 5.88624 7.06169 5.80721 4.05864 5.84369 6.40726 5.95352 6.11167 3.48894 6.11198 5.84369 6.40726 5.53184 9.7443 5.88624 7.06169 6.11198 8.73503 7.12593 6.14274 6.3079 5.13904 7.04643 6.19657 7.07145 4.9805 6.3079 5.13904 5.43054 4.28393 6.24367 5.42369 5.22762 4.35535 5.53184 9.7443 4.92433 5.86402 7.07145 4.9805 8.64059 5.54176 4.92433 5.86402 4.28393 3.13732 5.22762 4.35535 5.54176 2.44293 
