# vtk DataFile Version 3.0
#This file was generated by the deal.II library on 2020/8/22 at 21:54:04
ASCII
DATASET UNSTRUCTURED_GRID

POINTS 2304 double
-1 -1 0
-1 -0.944444 0
-1 -0.888889 0
-1 -0.833333 0
-0.833333 -1 0
-0.833333 -0.944444 0
-0.833333 -0.888889 0
-0.833333 -0.833333 0
-1 -1 0
-0.944444 -1 0
-0.888889 -1 0
-0.833333 -1 0
-1 -0.833333 0
-0.944444 -0.833333 0
-0.888889 -0.833333 0
-0.833333 -0.833333 0
-0.833333 -1 0
-0.833333 -0.944444 0
-0.833333 -0.888889 0
-0.833333 -0.833333 0
-0.666667 -1 0
-0.666667 -0.944444 0
-0.666667 -0.888889 0
-0.666667 -0.833333 0
-0.833333 -1 0
-0.777778 -1 0
-0.722222 -1 0
-0.666667 -1 0
-0.833333 -0.833333 0
-0.777778 -0.833333 0
-0.722222 -0.833333 0
-0.666667 -0.833333 0
-1 -0.833333 0
-1 -0.777778 0
-1 -0.722222 0
-1 -0.666667 0
-0.833333 -0.833333 0
-0.833333 -0.777778 0
-0.833333 -0.722222 0
-0.833333 -0.666667 0
-1 -0.833333 0
-0.944444 -0.833333 0
-0.888889 -0.833333 0
-0.833333 -0.833333 0
-1 -0.666667 0
-0.944444 -0.666667 0
-0.888889 -0.666667 0
-0.833333 -0.666667 0
-0.833333 -0.833333 0
-0.833333 -0.777778 0
-0.833333 -0.722222 0
-0.833333 -0.666667 0
-0.666667 -0.833333 0
-0.666667 -0.777778 0
-0.666667 -0.722222 0
-0.666667 -0.666667 0
-0.833333 -0.833333 0
-0.777778 -0.833333 0
-0.722222 -0.833333 0
-0.666667 -0.833333 0
-0.833333 -0.666667 0
-0.777778 -0.666667 0
-0.722222 -0.666667 0
-0.666667 -0.666667 0
-0.666667 -1 0
-0.666667 -0.944444 0
-0.666667 -0.888889 0
-0.666667 -0.833333 0
-0.5 -1 0
-0.5 -0.944444 0
-0.5 -0.888889 0
-0.5 -0.833333 0
-0.666667 -1 0
-0.611111 -1 0
-0.555556 -1 0
-0.5 -1 0
-0.666667 -0.833333 0
-0.611111 -0.833333 0
-0.555556 -0.833333 0
-0.5 -0.833333 0
-0.5 -1 0
-0.5 -0.944444 0
-0.5 -0.888889 0
-0.5 -0.833333 0
-0.333333 -1 0
-0.333333 -0.944444 0
-0.333333 -0.888889 0
-0.333333 -0.833333 0
-0.5 -1 0
-0.444444 -1 0
-0.388889 -1 0
-0.333333 -1 0
-0.5 -0.833333 0
-0.444444 -0.833333 0
-0.388889 -0.833333 0
-0.333333 -0.833333 0
-0.666667 -0.833333 0
-0.666667 -0.777778 0
-0.666667 -0.722222 0
-0.666667 -0.666667 0
-0.5 -0.833333 0
-0.5 -0.777778 0
-0.5 -0.722222 0
-0.5 -0.666667 0
-0.666667 -0.833333 0
-0.611111 -0.833333 0
-0.555556 -0.833333 0
-0.5 -0.833333 0
-0.666667 -0.666667 0
-0.611111 -0.666667 0
-0.555556 -0.666667 0
-0.5 -0.666667 0
-0.5 -0.833333 0
-0.5 -0.777778 0
-0.5 -0.722222 0
-0.5 -0.666667 0
-0.333333 -0.833333 0
-0.333333 -0.777778 0
-0.333333 -0.722222 0
-0.333333 -0.666667 0
-0.5 -0.833333 0
-0.444444 -0.833333 0
-0.388889 -0.833333 0
-0.333333 -0.833333 0
-0.5 -0.666667 0
-0.444444 -0.666667 0
-0.388889 -0.666667 0
-0.333333 -0.666667 0
-1 -0.666667 0
-1 -0.611111 0
-1 -0.555556 0
-1 -0.5 0
-0.833333 -0.666667 0
-0.833333 -0.611111 0
-0.833333 -0.555556 0
-0.833333 -0.5 0
-1 -0.666667 0
-0.944444 -0.666667 0
-0.888889 -0.666667 0
-0.833333 -0.666667 0
-1 -0.5 0
-0.944444 -0.5 0
-0.888889 -0.5 0
-0.833333 -0.5 0
-0.833333 -0.666667 0
-0.833333 -0.611111 0
-0.833333 -0.555556 0
-0.833333 -0.5 0
-0.666667 -0.666667 0
-0.666667 -0.611111 0
-0.666667 -0.555556 0
-0.666667 -0.5 0
-0.833333 -0.666667 0
-0.777778 -0.666667 0
-0.722222 -0.666667 0
-0.666667 -0.666667 0
-0.833333 -0.5 0
-0.777778 -0.5 0
-0.722222 -0.5 0
-0.666667 -0.5 0
-1 -0.5 0
-1 -0.444444 0
-1 -0.388889 0
-1 -0.333333 0
-0.833333 -0.5 0
-0.833333 -0.444444 0
-0.833333 -0.388889 0
-0.833333 -0.333333 0
-1 -0.5 0
-0.944444 -0.5 0
-0.888889 -0.5 0
-0.833333 -0.5 0
-1 -0.333333 0
-0.944444 -0.333333 0
-0.888889 -0.333333 0
-0.833333 -0.333333 0
-0.833333 -0.5 0
-0.833333 -0.444444 0
-0.833333 -0.388889 0
-0.833333 -0.333333 0
-0.666667 -0.5 0
-0.666667 -0.444444 0
-0.666667 -0.388889 0
-0.666667 -0.333333 0
-0.833333 -0.5 0
-0.777778 -0.5 0
-0.722222 -0.5 0
-0.666667 -0.5 0
-0.833333 -0.333333 0
-0.777778 -0.333333 0
-0.722222 -0.333333 0
-0.666667 -0.333333 0
-0.666667 -0.666667 0
-0.666667 -0.611111 0
-0.666667 -0.555556 0
-0.666667 -0.5 0
-0.5 -0.666667 0
-0.5 -0.611111 0
-0.5 -0.555556 0
-0.5 -0.5 0
-0.666667 -0.666667 0
-0.611111 -0.666667 0
-0.555556 -0.666667 0
-0.5 -0.666667 0
-0.666667 -0.5 0
-0.611111 -0.5 0
-0.555556 -0.5 0
-0.5 -0.5 0
-0.5 -0.666667 0
-0.5 -0.611111 0
-0.5 -0.555556 0
-0.5 -0.5 0
-0.333333 -0.666667 0
-0.333333 -0.611111 0
-0.333333 -0.555556 0
-0.333333 -0.5 0
-0.5 -0.666667 0
-0.444444 -0.666667 0
-0.388889 -0.666667 0
-0.333333 -0.666667 0
-0.5 -0.5 0
-0.444444 -0.5 0
-0.388889 -0.5 0
-0.333333 -0.5 0
-0.666667 -0.5 0
-0.666667 -0.444444 0
-0.666667 -0.388889 0
-0.666667 -0.333333 0
-0.5 -0.5 0
-0.5 -0.444444 0
-0.5 -0.388889 0
-0.5 -0.333333 0
-0.666667 -0.5 0
-0.611111 -0.5 0
-0.555556 -0.5 0
-0.5 -0.5 0
-0.666667 -0.333333 0
-0.611111 -0.333333 0
-0.555556 -0.333333 0
-0.5 -0.333333 0
-0.5 -0.5 0
-0.5 -0.444444 0
-0.5 -0.388889 0
-0.5 -0.333333 0
-0.333333 -0.5 0
-0.333333 -0.444444 0
-0.333333 -0.388889 0
-0.333333 -0.333333 0
-0.5 -0.5 0
-0.444444 -0.5 0
-0.388889 -0.5 0
-0.333333 -0.5 0
-0.5 -0.333333 0
-0.444444 -0.333333 0
-0.388889 -0.333333 0
-0.333333 -0.333333 0
-0.333333 -1 0
-0.333333 -0.944444 0
-0.333333 -0.888889 0
-0.333333 -0.833333 0
-0.166667 -1 0
-0.166667 -0.944444 0
-0.166667 -0.888889 0
-0.166667 -0.833333 0
-0.333333 -1 0
-0.277778 -1 0
-0.222222 -1 0
-0.166667 -1 0
-0.333333 -0.833333 0
-0.277778 -0.833333 0
-0.222222 -0.833333 0
-0.166667 -0.833333 0
-0.166667 -1 0
-0.166667 -0.944444 0
-0.166667 -0.888889 0
-0.166667 -0.833333 0
-5.55112e-17 -1 0
-5.55112e-17 -0.944444 0
-5.55112e-17 -0.888889 0
-5.55112e-17 -0.833333 0
-0.166667 -1 0
-0.111111 -1 0
-0.0555556 -1 0
-5.55112e-17 -1 0
-0.166667 -0.833333 0
-0.111111 -0.833333 0
-0.0555556 -0.833333 0
-5.55112e-17 -0.833333 0
-0.333333 -0.833333 0
-0.333333 -0.777778 0
-0.333333 -0.722222 0
-0.333333 -0.666667 0
-0.166667 -0.833333 0
-0.166667 -0.777778 0
-0.166667 -0.722222 0
-0.166667 -0.666667 0
-0.333333 -0.833333 0
-0.277778 -0.833333 0
-0.222222 -0.833333 0
-0.166667 -0.833333 0
-0.333333 -0.666667 0
-0.277778 -0.666667 0
-0.222222 -0.666667 0
-0.166667 -0.666667 0
-0.166667 -0.833333 0
-0.166667 -0.777778 0
-0.166667 -0.722222 0
-0.166667 -0.666667 0
-5.55112e-17 -0.833333 0
-5.55112e-17 -0.777778 0
-5.55112e-17 -0.722222 0
-5.55112e-17 -0.666667 0
-0.166667 -0.833333 0
-0.111111 -0.833333 0
-0.0555556 -0.833333 0
-5.55112e-17 -0.833333 0
-0.166667 -0.666667 0
-0.111111 -0.666667 0
-0.0555556 -0.666667 0
-5.55112e-17 -0.666667 0
-5.55112e-17 -1 0
-5.55112e-17 -0.944444 0
-5.55112e-17 -0.888889 0
-5.55112e-17 -0.833333 0
0.166667 -1 0
0.166667 -0.944444 0
0.166667 -0.888889 0
0.166667 -0.833333 0
-5.55112e-17 -1 0
0.0555556 -1 0
0.111111 -1 0
0.166667 -1 0
-5.55112e-17 -0.833333 0
0.0555556 -0.833333 0
0.111111 -0.833333 0
0.166667 -0.833333 0
0.166667 -1 0
0.166667 -0.944444 0
0.166667 -0.888889 0
0.166667 -0.833333 0
0.333333 -1 0
0.333333 -0.944444 0
0.333333 -0.888889 0
0.333333 -0.833333 0
0.166667 -1 0
0.222222 -1 0
0.277778 -1 0
0.333333 -1 0
0.166667 -0.833333 0
0.222222 -0.833333 0
0.277778 -0.833333 0
0.333333 -0.833333 0
-5.55112e-17 -0.833333 0
-5.55112e-17 -0.777778 0
-5.55112e-17 -0.722222 0
-5.55112e-17 -0.666667 0
0.166667 -0.833333 0
0.166667 -0.777778 0
0.166667 -0.722222 0
0.166667 -0.666667 0
-5.55112e-17 -0.833333 0
0.0555556 -0.833333 0
0.111111 -0.833333 0
0.166667 -0.833333 0
-5.55112e-17 -0.666667 0
0.0555556 -0.666667 0
0.111111 -0.666667 0
0.166667 -0.666667 0
0.166667 -0.833333 0
0.166667 -0.777778 0
0.166667 -0.722222 0
0.166667 -0.666667 0
0.333333 -0.833333 0
0.333333 -0.777778 0
0.333333 -0.722222 0
0.333333 -0.666667 0
0.166667 -0.833333 0
0.222222 -0.833333 0
0.277778 -0.833333 0
0.333333 -0.833333 0
0.166667 -0.666667 0
0.222222 -0.666667 0
0.277778 -0.666667 0
0.333333 -0.666667 0
-0.333333 -0.666667 0
-0.333333 -0.611111 0
-0.333333 -0.555556 0
-0.333333 -0.5 0
-0.166667 -0.666667 0
-0.166667 -0.611111 0
-0.166667 -0.555556 0
-0.166667 -0.5 0
-0.333333 -0.666667 0
-0.277778 -0.666667 0
-0.222222 -0.666667 0
-0.166667 -0.666667 0
-0.333333 -0.5 0
-0.277778 -0.5 0
-0.222222 -0.5 0
-0.166667 -0.5 0
-0.166667 -0.666667 0
-0.166667 -0.611111 0
-0.166667 -0.555556 0
-0.166667 -0.5 0
-5.55112e-17 -0.666667 0
-5.55112e-17 -0.611111 0
-5.55112e-17 -0.555556 0
-5.55112e-17 -0.5 0
-0.166667 -0.666667 0
-0.111111 -0.666667 0
-0.0555556 -0.666667 0
-5.55112e-17 -0.666667 0
-0.166667 -0.5 0
-0.111111 -0.5 0
-0.0555556 -0.5 0
-5.55112e-17 -0.5 0
-0.333333 -0.5 0
-0.333333 -0.444444 0
-0.333333 -0.388889 0
-0.333333 -0.333333 0
-0.166667 -0.5 0
-0.166667 -0.444444 0
-0.166667 -0.388889 0
-0.166667 -0.333333 0
-0.333333 -0.5 0
-0.277778 -0.5 0
-0.222222 -0.5 0
-0.166667 -0.5 0
-0.333333 -0.333333 0
-0.277778 -0.333333 0
-0.222222 -0.333333 0
-0.166667 -0.333333 0
-0.166667 -0.5 0
-0.166667 -0.444444 0
-0.166667 -0.388889 0
-0.166667 -0.333333 0
-5.55112e-17 -0.5 0
-5.55112e-17 -0.444444 0
-5.55112e-17 -0.388889 0
-5.55112e-17 -0.333333 0
-0.166667 -0.5 0
-0.111111 -0.5 0
-0.0555556 -0.5 0
-5.55112e-17 -0.5 0
-0.166667 -0.333333 0
-0.111111 -0.333333 0
-0.0555556 -0.333333 0
-5.55112e-17 -0.333333 0
-5.55112e-17 -0.666667 0
-5.55112e-17 -0.611111 0
-5.55112e-17 -0.555556 0
-5.55112e-17 -0.5 0
0.166667 -0.666667 0
0.166667 -0.611111 0
0.166667 -0.555556 0
0.166667 -0.5 0
-5.55112e-17 -0.666667 0
0.0555556 -0.666667 0
0.111111 -0.666667 0
0.166667 -0.666667 0
-5.55112e-17 -0.5 0
0.0555556 -0.5 0
0.111111 -0.5 0
0.166667 -0.5 0
0.166667 -0.666667 0
0.166667 -0.611111 0
0.166667 -0.555556 0
0.166667 -0.5 0
0.333333 -0.666667 0
0.333333 -0.611111 0
0.333333 -0.555556 0
0.333333 -0.5 0
0.166667 -0.666667 0
0.222222 -0.666667 0
0.277778 -0.666667 0
0.333333 -0.666667 0
0.166667 -0.5 0
0.222222 -0.5 0
0.277778 -0.5 0
0.333333 -0.5 0
-5.55112e-17 -0.5 0
-5.55112e-17 -0.444444 0
-5.55112e-17 -0.388889 0
-5.55112e-17 -0.333333 0
0.166667 -0.5 0
0.166667 -0.444444 0
0.166667 -0.388889 0
0.166667 -0.333333 0
-5.55112e-17 -0.5 0
0.0555556 -0.5 0
0.111111 -0.5 0
0.166667 -0.5 0
-5.55112e-17 -0.333333 0
0.0555556 -0.333333 0
0.111111 -0.333333 0
0.166667 -0.333333 0
0.166667 -0.5 0
0.166667 -0.444444 0
0.166667 -0.388889 0
[...]
POINT_DATA 2304
SCALARS u_hat double 1
LOOKUP_TABLE default
1.88815e-05 5.56525e-05 0.000180086 0.000475949 0.000431627 0.00175831 0.00565283 0.0152685 1.87358e-05 5.5447e-05 0.000179276 0.000474529 0.000434967 0.00175889 0.00565484 0.0152665 0.000431627 0.00175831 0.00565283 0.0152685 0.00336702 0.0141355 0.045352 0.122684 0.000379057 0.00116961 0.0021847 0.00395464 0.0146759 0.0363677 0.0715837 0.124881 0.000365164 0.00117942 0.00217891 0.00396789 0.0146403 0.0363887 0.0715721 0.124917 0.000434967 0.00175889 0.00565484 0.0152665 0.00337826 0.0141294 0.0453591 0.122673 0.0146403 0.0363887 0.0715721 0.124917 0.119847 0.291116 0.575881 1.00098 0.0146759 0.0363677 0.0715837 0.124881 0.11991 0.291086 0.575906 1.00092 0.00336702 0.0141355 0.045352 0.122684 0.00672582 0.0283415 0.0908262 0.245714 0.00410283 0.00551702 0.00724386 0.00740761 0.125834 0.180684 0.23003 0.244654 0.00672582 0.0283415 0.0908262 0.245714 0.00337376 0.0141325 0.0453578 0.122674 0.00740518 0.00724194 0.00551173 0.00410627 0.244651 0.230028 0.180678 0.125843 0.119847 0.291116 0.575881 1.00098 0.24094 0.582483 1.15363 2.00358 0.125834 0.180684 0.23003 0.244654 1.00556 1.45352 1.84488 1.9698 0.24094 0.582483 1.15363 2.00358 0.119625 0.291197 0.575788 1.00122 0.244651 0.230028 0.180678 0.125843 1.96981 1.84487 1.45351 1.00556 0.0041331 0.00549854 0.00725708 0.00738134 0.125918 0.18064 0.230063 0.244576 0.00337826 0.0141294 0.0453591 0.122673 0.0067535 0.0283332 0.0908399 0.24569 0.125918 0.18064 0.230063 0.244576 1.00574 1.45343 1.84495 1.96963 0.11991 0.291086 0.575906 1.00092 0.240872 0.582515 1.15359 2.00365 0.00738404 0.00725956 0.00550476 0.00412924 0.244579 0.230067 0.180648 0.12591 0.0067535 0.0283332 0.0908399 0.24569 0.00338863 0.0141251 0.0453636 0.122657 0.244579 0.230067 0.180648 0.12591 1.96962 1.84497 1.45344 1.00574 0.240872 0.582515 1.15359 2.00365 0.119478 0.291267 0.575724 1.00137 1.00574 1.45343 1.84495 1.96963 2.01179 2.91176 3.69372 3.94674 1.00556 1.45352 1.84488 1.9698 2.01183 2.91174 3.69374 3.9467 2.01179 2.91176 3.69372 3.94674 1.00635 1.45321 1.84519 1.96901 1.96981 1.84487 1.45351 1.00556 3.94675 3.69372 2.91177 2.01179 1.96962 1.84497 1.45344 1.00574 3.9467 3.69374 2.91174 2.01184 2.01183 2.91174 3.69374 3.9467 1.00659 1.4531 1.84531 1.96877 3.9467 3.69374 2.91174 2.01184 1.96896 1.84521 1.45318 1.0064 3.94675 3.69372 2.91177 2.01179 1.96882 1.84528 1.45312 1.00654 0.00337376 0.0141325 0.0453578 0.122674 0.00043506 0.00175726 0.00565568 0.0152661 0.00395744 0.00218396 0.00117275 0.000374867 0.124888 0.0715851 0.0363732 0.0146719 0.00043506 0.00175726 0.00565568 0.0152661 3.19434e-05 0.000109037 0.000354666 0.000947382 0.000480866 0.000176344 6.12164e-05 2.56995e-05 0.0153172 0.00565013 0.00189094 0.000838912 0.119625 0.291197 0.575788 1.00122 0.014543 0.0364323 0.0715455 0.125052 0.124888 0.0715851 0.0363732 0.0146719 1.00091 0.575911 0.291088 0.119943 0.014543 0.0364323 0.0715455 0.125052 0.000804809 0.00231119 0.00439307 0.00785959 0.0153172 0.00565013 0.00189094 0.000838912 0.122964 0.0453975 0.0151452 0.00675834 3.19434e-05 0.000109037 0.000354666 0.000947382 0.000438128 0.00175512 0.00565728 0.0152635 2.62211e-05 6.08818e-05 0.000176398 0.000479894 0.000842594 0.00188954 0.00565262 0.0153143 0.000438128 0.00175512 0.00565728 0.0152635 0.00338719 0.0141237 0.0453622 0.122656 0.000367549 0.00117405 0.00217778 0.00396361 0.014647 0.0363833 0.0715681 0.124912 0.000804809 0.00231119 0.00439307 0.00785959 0.0144853 0.0364616 0.0715192 0.12511 0.000842594 0.00188954 0.00565262 0.0153143 0.00677533 0.0151367 0.045405 0.122946 0.0144853 0.0364616 0.0715192 0.12511 0.119476 0.291265 0.575723 1.00137 0.014647 0.0363833 0.0715681 0.124912 0.119855 0.291128 0.575869 1.001 1.00635 1.45321 1.84519 1.96901 0.126218 0.180581 0.230228 0.244358 1.00091 0.575911 0.291088 0.119943 2.0036 1.15362 0.582495 0.240981 0.126218 0.180581 0.230228 0.244358 0.00807755 0.011094 0.0144148 0.0149353 0.122964 0.0453975 0.0151452 0.00675834 0.24622 0.0909396 0.030341 0.0135741 1.96896 1.84521 1.45318 1.0064 0.244341 0.230236 0.180573 0.126235 2.0036 1.15362 0.582495 0.240981 1.00131 0.57575 0.291241 0.119568 0.244341 0.230236 0.180573 0.126235 0.0149355 0.0144149 0.0110943 0.00807742 0.24622 0.0909396 0.030341 0.0135741 0.122965 0.0453968 0.0151474 0.00675121 0.00807755 0.011094 0.0144148 0.0149353 0.126324 0.180528 0.230276 0.24425 0.00677533 0.0151367 0.045405 0.122946 0.0135984 0.0303303 0.0909517 0.246194 0.126324 0.180528 0.230276 0.24425 1.00659 1.45309 1.8453 1.96876 0.119855 0.291128 0.575869 1.001 0.240906 0.582528 1.15359 2.00367 0.0149355 0.0144149 0.0110943 0.00807742 0.244268 0.230269 0.180538 0.126306 0.0135984 0.0303303 0.0909517 0.246194 0.00676155 0.0151423 0.0454013 0.122954 0.244268 0.230269 0.180538 0.126306 1.96882 1.84528 1.45312 1.00653 0.240906 0.582528 1.15359 2.00367 0.119576 0.291237 0.575755 1.0013 0.00338719 0.0141237 0.0453622 0.122656 0.00675164 0.0283313 0.0908381 0.245688 0.00412781 0.00550318 0.00725784 0.00738218 0.125908 0.180647 0.230065 0.244578 0.00675164 0.0283313 0.0908381 0.245688 0.00337602 0.0141272 0.045357 0.122671 0.00737949 0.00725509 0.00549642 0.00413086 0.244574 0.230061 0.180639 0.125916 0.119476 0.291265 0.575723 1.00137 0.24087 0.582514 1.15359 2.00365 0.125908 0.180647 0.230065 0.244578 1.00574 1.45344 1.84496 1.96962 0.24087 0.582514 1.15359 2.00365 0.119908 0.291084 0.575904 1.00092 0.244574 0.230061 0.180639 0.125916 1.96963 1.84495 1.45343 1.00574 0.00337602 0.0141272 0.045357 0.122671 0.00043232 0.00175648 0.00565238 0.0152644 0.00396566 0.00217656 0.00117696 0.000362627 0.124915 0.07157 0.0363865 0.0146379 0.00043232 0.00175648 0.00565238 0.0152644 1.21328e-05 5.50145e-05 0.000175114 0.000474746 0.000473333 0.000177527 5.30779e-05 1.61483e-05 0.0152664 0.0056501 0.00175538 0.000429284 0.119908 0.291084 0.575904 1.00092 0.0146767 0.0363642 0.0715839 0.124877 0.124915 0.07157 0.0363865 0.0146379 1.00098 0.575879 0.291114 0.119846 0.0146767 0.0363642 0.0715839 0.124877 0.000486012 0.00111611 0.00223502 0.00384841 0.0152664 0.0056501 0.00175538 0.000429284 0.122683 0.0453521 0.0141364 0.00336683 1.00659 1.45309 1.8453 1.96876 2.01183 2.91174 3.69374 3.9467 1.00574 1.45344 1.84496 1.96962 2.01184 2.91174 3.69374 3.9467 2.01183 2.91174 3.69374 3.9467 1.00556 1.45352 1.84488 1.9698 1.96963 1.84495 1.45343 1.00574 3.94674 3.69372 2.91176 2.01179 1.96882 1.84528 1.45312 1.00653 3.94675 3.69372 2.91177 2.01179 2.01184 2.91174 3.69374 3.9467 1.0064 1.45318 1.84521 1.96895 3.94675 3.69372 2.91177 2.01179 1.96981 1.84487 1.45351 1.00555 3.94674 3.69372 2.91176 2.01179 1.969 1.84519 1.45321 1.00634 1.00556 1.45352 1.84488 1.9698 0.125825 0.180686 0.230023 0.244658 1.00098 0.575879 0.291114 0.119846 2.00358 1.15362 0.58248 0.240936 0.125825 0.180686 0.230023 0.244658 0.00383351 0.00564122 0.00711053 0.00766808 0.122683 0.0453521 0.0141364 0.00336683 0.245711 0.0908198 0.0283334 0.00671859 1.96981 1.84487 1.45351 1.00555 0.244655 0.230021 0.18068 0.125835 2.00358 1.15362 0.58248 0.240936 1.00122 0.575786 0.291195 0.119625 0.244655 0.230021 0.18068 0.125835 0.00766808 0.00711053 0.00564122 0.00383351 0.245711 0.0908198 0.0283334 0.00671859 0.122673 0.0453585 0.0141341 0.00337427 0.00396505 0.00217907 0.00117519 0.000368536 0.124913 0.0715693 0.0363843 0.0146479 0.00338863 0.0141251 0.0453636 0.122657 0.000439114 0.00175609 0.00565824 0.0152644 0.124913 0.0715693 0.0363843 0.0146479 1.00101 0.57587 0.291129 0.119856 0.119478 0.291267 0.575724 1.00137 0.0144862 0.0364625 0.0715201 0.12511 0.00048088 0.000177232 6.15642e-05 2.67515e-05 0.0153152 0.00565341 0.00189018 0.000843091 0.000439114 0.00175609 0.00565824 0.0152644 3.24738e-05 0.000109563 0.00035518 0.000947878 0.0153152 0.00565341 0.00189018 0.000843091 0.122947 0.0454057 0.0151372 0.00677575 0.0144862 0.0364625 0.0715201 0.12511 0.000805306 0.00231167 0.00439352 0.00786001 1.00101 0.57587 0.291129 0.119856 2.00367 1.15359 0.582529 0.240907 1.00659 1.4531 1.84531 1.96877 0.126325 0.180529 0.230277 0.244251 2.00367 1.15359 0.582529 0.240907 1.0013 0.575756 0.291238 0.119576 1.96882 1.84528 1.45312 1.00654 0.244269 0.230269 0.180539 0.126307 0.122947 0.0454057 0.0151372 0.00677575 0.246195 0.0909522 0.0303307 0.0135987 0.126325 0.180529 0.230277 0.244251 0.00807796 0.0110944 0.0144152 0.0149356 0.246195 0.0909522 0.0303307 0.0135987 0.122955 0.0454018 0.0151427 0.00676176 0.244269 0.230269 0.180539 0.126307 0.0149358 0.0144151 0.0110946 0.00807761 2.62299e-05 6.15952e-05 0.000176572 0.000480943 0.000839409 0.00189129 0.00565033 0.0153172 3.24738e-05 0.000109563 0.00035518 0.000947878 0.000435137 0.00175733 0.00565574 0.0152662 0.000839409 0.00189129 0.00565033 0.0153172 0.00675875 0.0151454 0.0453977 0.122964 0.000805306 0.00231167 0.00439352 0.00786001 0.014543 0.0364323 0.0715455 0.125052 0.000374944 0.00117268 0.00218374 0.00395707 0.014672 0.036373 0.0715848 0.124887 0.000435137 0.00175733 0.00565574 0.0152662 0.00337338 0.0141321 0.0453574 0.122673 0.014672 0.036373 0.0715848 0.124887 0.119943 0.291088 0.57591 1.00091 0.014543 0.0364323 0.0715455 0.125052 0.119625 0.291196 0.575787 1.00122 0.00675875 0.0151454 0.0453977 0.122964 0.0135744 0.0303412 0.0909396 0.24622 0.00807796 0.0110944 0.0144152 0.0149356 0.126217 0.180581 0.230228 0.244358 0.0135744 0.0303412 0.0909396 0.24622 0.0067514 0.0151474 0.0453967 0.122965 0.0149358 0.0144151 0.0110946 0.00807761 0.244341 0.230235 0.180572 0.126235 0.119943 0.291088 0.57591 1.00091 0.240981 0.582495 1.15362 2.0036 0.126217 0.180581 0.230228 0.244358 1.00635 1.45321 1.84519 1.969 0.240981 0.582495 1.15362 2.0036 0.119568 0.29124 0.57575 1.00131 0.244341 0.230235 0.180572 0.126235 1.96895 1.84521 1.45318 1.0064 1.0013 0.575756 0.291238 0.119576 0.125075 0.0715355 0.0364445 0.0145236 1.00131 0.57575 0.291241 0.119568 0.125089 0.0715289 0.0364513 0.0145092 0.125075 0.0715355 0.0364445 0.0145236 0.00785952 0.00439302 0.00231082 0.000804619 0.122965 0.0453968 0.0151474 0.00675121 0.0153226 0.00565109 0.0018922 0.0008358 0.122955 0.0454018 0.0151427 0.00676176 0.0153211 0.00565191 0.00189168 0.000837298 0.125089 0.0715289 0.0364513 0.0145092 0.00785972 0.00439317 0.00231094 0.000804697 0.0153211 0.00565191 0.00189168 0.000837298 0.000951398 0.000352803 0.000114151 4.13401e-05 0.0153226 0.00565109 0.0018922 0.0008358 0.000951536 0.000352822 0.000114196 4.1286e-05 0.00785952 0.00439302 0.00231082 0.000804619 0.125087 0.0715288 0.0364495 0.0145065 0.00676155 0.0151423 0.0454013 0.122954 0.000836911 0.00189118 0.00564994 0.015317 0.125087 0.0715288 0.0364495 0.0145065 1.0013 0.575752 0.291233 0.119548 0.119576 0.291237 0.575755 1.0013 0.0145229 0.0364333 0.0715194 0.125041 0.000951398 0.000352803 0.000114151 4.13401e-05 0.0152649 0.00565512 0.00175545 0.00043483 0.000836911 0.00189118 0.00564994 0.015317 3.59383e-05 6.59637e-05 0.000174781 0.000482835 0.0152649 0.00565512 0.00175545 0.00043483 0.12267 0.0453589 0.0141319 0.0033767 0.0145229 0.0364333 0.0715194 0.125041 0.000404117 0.00115528 0.00219753 0.00392885 0.0067514 0.0151474 0.0453967 0.122965 0.000835582 0.00189186 0.00564927 0.0153186 0.00785972 0.00439317 0.00231094 0.000804697 0.125073 0.0715357 0.0364429 0.014521 0.000835582 0.00189186 0.00564927 0.0153186 3.59058e-05 6.59995e-05 0.000174804 0.000482922 0.000951536 0.000352822 0.000114196 4.1286e-05 0.0152639 0.00565582 0.00175508 0.000435962 0.119568 0.29124 0.57575 1.00131 0.0145084 0.0364404 0.0715127 0.125056 0.125073 0.0715357 0.0364429 0.014521 1.00129 0.575757 0.29123 0.119556 0.0145084 0.0364404 0.0715127 0.125056 0.000401375 0.00115652 0.00219599 0.00393145 0.0152639 0.00565582 0.00175508 0.000435962 0.122661 0.0453633 0.0141272 0.00338612 3.59058e-05 6.59995e-05 0.000174804 0.000482922 0.00040216 0.000137994 -1.84219e-06 6.20872e-05 3.59383e-05 6.59637e-05 0.000174781 0.000482835 0.000401885 0.000138153 -2.01877e-06 6.24297e-05 0.00040216 0.000137994 -1.84219e-06 6.20872e-05 0.0033759 0.00101574 3.86984e-05 0.000294427 0.000404117 0.00115528 0.00219753 0.00392885 3.73138e-06 1.27435e-05 1.60449e-05 3.51698e-05 0.000401375 0.00115652 0.00219599 0.00393145 3.51066e-06 1.28326e-05 1.59335e-05 3.54597e-05 0.000401885 0.000138153 -2.01877e-06 6.24297e-05 0.00337497 0.00101586 3.8243e-05 0.000295254 3.51066e-06 1.28326e-05 1.59335e-05 3.54597e-05 2.01758e-05 8.08988e-06 -1.89209e-06 7.72027e-06 3.73138e-06 1.27435e-05 1.60449e-05 3.51698e-05 2.02274e-05 8.15523e-06 -1.86507e-06 7.73581e-06 1.0013 0.575752 0.291233 0.119548 2.00358 1.15363 0.58248 0.240938 1.0064 1.45318 1.84521 1.96895 0.126195 0.180532 0.230175 0.244289 2.00358 1.15363 0.58248 0.240938 1.0009 0.575912 0.29108 0.119922 1.969 1.84519 1.45321 1.00634 0.244307 0.230167 0.180541 0.126177 0.12267 0.0453589 0.0141319 0.0033767 0.245711 0.0908219 0.0283368 0.00672158 0.126195 0.180532 0.230175 0.244289 0.00403299 0.00555 0.00720411 0.00747322 0.245711 0.0908219 0.0283368 0.00672158 0.122687 0.0453515 0.014137 0.00336411 0.244307 0.230167 0.180541 0.126177 0.00747566 0.00720299 0.00555116 0.00403015 1.0009 0.575912 0.29108 0.119922 0.124883 0.0715861 0.0363688 0.0146708 1.00122 0.575786 0.291195 0.119625 0.125017 0.0715288 0.03642 0.0145411 0.124883 0.0715861 0.0363688 0.0146708 0.00384841 0.00223502 0.00111611 0.000486012 0.122673 0.0453585 0.0141341 0.00337427 0.0152606 0.00565173 0.00175413 0.000432556 0.122687 0.0453515 0.014137 0.00336411 0.0152663 0.00564932 0.00175607 0.000428105 0.125017 0.0715288 0.03642 0.0145411 0.00392529 0.00219841 0.00115275 0.000406168 0.0152663 0.00564932 0.00175607 0.000428105 0.000474746 0.000175114 5.50145e-05 1.21328e-05 0.0152606 0.00565173 0.00175413 0.000432556 0.000473007 0.000176358 5.37363e-05 1.48263e-05 0.0033759 0.00101574 3.86984e-05 0.000294427 0.00685123 0.00200336 0.000117105 0.000508721 0.00403299 0.00555 0.00720411 0.00747322 3.86639e-05 4.03079e-05 5.99427e-05 5.21494e-05 0.00685123 0.00200336 0.000117105 0.000508721 0.00339385 0.00100817 4.52412e-05 0.000276635 0.00747566 0.00720299 0.00555116 0.00403015 5.23311e-05 5.98208e-05 4.02719e-05 3.81628e-05 2.01758e-05 8.08988e-06 -1.89209e-06 7.72027e-06 4.26195e-05 1.48287e-05 -3.54476e-06 1.24545e-05 3.86639e-05 4.03079e-05 5.99427e-05 5.21494e-05 1.08559e-06 6.56152e-07 9.13185e-07 5.06252e-07 4.26195e-05 1.48287e-05 -3.54476e-06 1.24545e-05 2.03835e-05 7.53145e-06 -2.04341e-06 6.83793e-06 5.23311e-05 5.98208e-05 4.02719e-05 3.81628e-05 4.90364e-07 8.14835e-07 4.32298e-07 7.31972e-07 0.00339385 0.00100817 4.52412e-05 0.000276635 0.000408965 0.000133171 -1.01818e-06 4.9513e-05 0.00392529 0.00219841 0.00115275 0.000406168 3.33013e-05 1.61718e-05 1.07063e-05 9.47362e-07 0.000408965 0.000133171 -1.01818e-06 4.9513e-05 1.43148e-05 3.41779e-06 6.73094e-07 -1.52369e-07 0.000473007 0.000176358 5.37363e-05 1.48263e-05 4.04516e-06 1.67364e-06 4.83036e-07 1.69098e-07 2.03835e-05 7.53145e-06 -2.04341e-06 6.83793e-06 2.63663e-06 1.4158e-06 -1.82653e-07 1.3863e-06 3.33013e-05 1.61718e-05 1.07063e-05 9.47362e-07 5.63335e-07 3.28636e-07 3.70166e-07 1.41979e-07 2.63663e-06 1.4158e-06 -1.82653e-07 1.3863e-06 1.05705e-07 1.66033e-08 2.0223e-09 -3.15045e-09 4.04516e-06 1.67364e-06 4.83036e-07 1.69098e-07 2.48049e-07 1.72169e-07 8.44853e-08 4.04052e-09 0.00410589 0.00551121 0.00724127 0.00740434 0.125843 0.180677 0.230027 0.24465 0.00337338 0.0141321 0.0453574 0.122673 0.00672498 0.0283406 0.0908253 0.245713 0.125843 0.180677 0.230027 0.24465 1.00556 1.45351 1.84487 1.96981 0.119625 0.291196 0.575787 1.00122 0.240939 0.582482 1.15363 2.00358 0.00740677 0.00724286 0.00551585 0.00410147 0.244653 0.230029 0.180683 0.125833 0.00672498 0.0283406 0.0908253 0.245713 0.00336565 0.0141341 0.0453506 0.122683 0.244653 0.230029 0.180683 0.125833 1.9698 1.84488 1.45352 1.00556 0.240939 0.582482 1.15363 2.00358 0.119846 0.291115 0.57588 1.00098 1.00556 1.45351 1.84487 1.96981 2.01179 2.91177 3.69372 3.94675 1.00635 1.45321 1.84519 1.969 2.01179 2.91176 3.69372 3.94674 2.01179 2.91177 3.69372 3.94675 1.00653 1.45312 1.84528 1.96882 1.96895 1.84521 1.45318 1.0064 3.9467 3.69374 2.91174 2.01184 1.9698 1.84488 1.45352 1.00556 3.9467 3.69374 2.91174 2.01183 2.01179 2.91176 3.69372 3.94674 1.00574 1.45343 1.84495 1.96963 3.9467 3.69374 2.91174 2.01183 1.96876 1.8453 1.45309 1.00659 3.9467 3.69374 2.91174 2.01184 1.96962 1.84496 1.45344 1.00574 0.00395328 0.00218313 0.00116782 0.00037704 0.12488 0.071582 0.0363658 0.0146735 0.00336565 0.0141341 0.0453506 0.122683 0.000429517 0.0017562 0.00565049 0.0152663 0.12488 0.071582 0.0363658 0.0146735 1.00092 0.575905 0.291085 0.119909 0.119846 0.291115 0.57588 1.00098 0.0146411 0.0363851 0.0715723 0.124913 0.000472427 0.000177061 5.30313e-05 1.60148e-05 0.0152644 0.00565172 0.00175509 0.000431082 0.000429517 0.0017562 0.00565049 0.0152663 1.21328e-05 5.50145e-05 0.000175114 0.000474746 0.0152644 0.00565172 0.00175509 0.000431082 0.122672 0.0453595 0.014131 0.00337948 0.0146411 0.0363851 0.0715723 0.124913 0.000486012 0.00111611 0.00223502 0.00384841 1.00092 0.575905 0.291085 0.119909 2.00365 1.15359 0.582512 0.240867 1.00574 1.45343 1.84495 1.96963 0.12591 0.180642 0.230055 0.244579 2.00365 1.15359 0.582512 0.240867 1.00137 0.575722 0.291265 0.119476 1.96962 1.84496 1.45344 1.00574 0.244583 0.230058 0.18065 0.1259 0.122672 0.0453595 0.014131 0.00337948 0.245686 0.0908324 0.028323 0.00674265 0.12591 0.180642 0.230055 0.244579 0.00383351 0.00564122 0.00711053 0.00766808 0.245686 0.0908324 0.028323 0.00674265 0.122655 0.0453635 0.014126 0.00338915 0.244583 0.230058 0.18065 0.1259 0.00766808 0.00711053 0.00564122 0.00383351 1.00653 1.45312 1.84528 1.96882 0.126268 0.180499 0.230209 0.244216 1.00129 0.575757 0.29123 0.119556 2.00365 1.15359 0.582514 0.240864 0.126268 0.180499 0.230209 0.244216 0.00404489 0.00554462 0.00721087 0.00746223 0.122661 0.0453633 0.0141272 0.00338612 0.245686 0.0908347 0.0283269 0.0067471 1.96876 1.8453 1.45309 1.00659 0.244198 0.230216 0.180488 0.126285 2.00365 1.15359 0.582514 0.240864 1.001 0.575871 0.29112 0.119834 0.244198 0.230216 0.180488 0.126285 0.00745958 0.00721157 0.00554246 0.00404676 0.245686 0.0908347 0.0283269 0.0067471 0.122669 0.0453593 0.014128 0.00338085 0.00404489 0.00554462 0.00721087 0.00746223 3.97417e-05 4.00685e-05 6.08294e-05 5.15426e-05 0.00337497 0.00101586 3.8243e-05 0.000295254 0.00685247 0.00200407 0.000117497 0.00050926 3.97417e-05 4.00685e-05 6.08294e-05 5.15426e-05 1.14398e-06 6.7278e-07 1.01776e-06 5.2699e-07 2.02274e-05 8.15523e-06 -1.86507e-06 7.73581e-06 4.30866e-05 1.50477e-05 -3.38525e-06 1.24901e-05 0.00745958 0.00721157 0.00554246 0.00404676 5.13188e-05 6.07073e-05 3.95335e-05 3.94107e-05 0.00685247 0.00200407 0.000117497 0.00050926 0.0033936 0.00100744 4.52527e-05 0.000275838 5.13188e-05 6.07073e-05 3.95335e-05 3.94107e-05 4.88463e-07 9.06713e-07 4.06932e-07 8.02691e-07 4.30866e-05 1.50477e-05 -3.38525e-06 1.24901e-05 2.02669e-05 7.40666e-06 -2.0423e-06 6.74753e-06 1.00137 0.575722 0.291265 0.119476 0.125076 0.0715025 0.0364502 0.0144833 1.001 0.575871 0.29112 0.119834 0.124907 0.0715699 0.0363797 0.0146465 0.125076 0.0715025 0.0364502 0.0144833 0.00393368 0.00219382 0.00115739 0.000397368 0.122669 0.0453593 0.014128 0.00338085 0.0152638 0.00565255 0.00175513 0.000432425 0.122655 0.0453635 0.014126 0.00338915 0.0152587 0.00565405 0.00175265 0.000436102 0.124907 0.0715699 0.0363797 0.0146465 0.00384841 0.00223502 0.00111611 0.000486012 0.0152587 0.00565405 0.00175265 0.000436102 0.00047303 0.000176843 5.36597e-05 1.52576e-05 0.0152638 0.00565255 0.00175513 0.000432425 0.000474746 0.000175114 5.50145e-05 1.21328e-05 0.00393368 0.00219382 0.00115739 0.000397368 3.38596e-05 1.56679e-05 1.10324e-05 2.27183e-07 0.0033936 0.00100744 4.52527e-05 0.000275838 0.000409623 0.000133427 -6.56835e-07 4.92683e-05 3.38596e-05 1.56679e-05 1.10324e-05 2.27183e-07 5.94263e-07 2.9051e-07 3.80851e-07 9.58416e-08 2.02669e-05 7.40666e-06 -2.0423e-06 6.74753e-06 2.70125e-06 1.42041e-06 -1.65366e-07 1.35791e-06 0.00047303 0.000176843 5.36597e-05 1.52576e-05 4.05345e-06 1.73776e-06 4.97189e-07 2.01068