# vtk DataFile Version 3.0
#This file was generated by the deal.II library on 2020/8/22 at 21:53:45
ASCII
DATASET UNSTRUCTURED_GRID

POINTS 256 double
-1 -1 0
-0.75 -1 0
-1 -0.75 0
-0.75 -0.75 0
-0.75 -1 0
-0.5 -1 0
-0.75 -0.75 0
-0.5 -0.75 0
-1 -0.75 0
-0.75 -0.75 0
-1 -0.5 0
-0.75 -0.5 0
-0.75 -0.75 0
-0.5 -0.75 0
-0.75 -0.5 0
-0.5 -0.5 0
-0.5 -1 0
-0.25 -1 0
-0.5 -0.75 0
-0.25 -0.75 0
-0.25 -1 0
0 -1 0
-0.25 -0.75 0
0 -0.75 0
-0.5 -0.75 0
-0.25 -0.75 0
-0.5 -0.5 0
-0.25 -0.5 0
-0.25 -0.75 0
0 -0.75 0
-0.25 -0.5 0
0 -0.5 0
-1 -0.5 0
-0.75 -0.5 0
-1 -0.25 0
-0.75 -0.25 0
-0.75 -0.5 0
-0.5 -0.5 0
-0.75 -0.25 0
-0.5 -0.25 0
-1 -0.25 0
-0.75 -0.25 0
-1 0 0
-0.75 0 0
-0.75 -0.25 0
-0.5 -0.25 0
-0.75 0 0
-0.5 0 0
-0.5 -0.5 0
-0.25 -0.5 0
-0.5 -0.25 0
-0.25 -0.25 0
-0.25 -0.5 0
0 -0.5 0
-0.25 -0.25 0
0 -0.25 0
-0.5 -0.25 0
-0.25 -0.25 0
-0.5 0 0
-0.25 0 0
-0.25 -0.25 0
0 -0.25 0
-0.25 0 0
0 0 0
0 -1 0
0.25 -1 0
0 -0.75 0
0.25 -0.75 0
0.25 -1 0
0.5 -1 0
0.25 -0.75 0
0.5 -0.75 0
0 -0.75 0
0.25 -0.75 0
0 -0.5 0
0.25 -0.5 0
0.25 -0.75 0
0.5 -0.75 0
0.25 -0.5 0
0.5 -0.5 0
0.5 -1 0
0.75 -1 0
0.5 -0.75 0
0.75 -0.75 0
0.75 -1 0
1 -1 0
0.75 -0.75 0
1 -0.75 0
0.5 -0.75 0
0.75 -0.75 0
0.5 -0.5 0
0.75 -0.5 0
0.75 -0.75 0
1 -0.75 0
0.75 -0.5 0
1 -0.5 0
0 -0.5 0
0.25 -0.5 0
0 -0.25 0
0.25 -0.25 0
0.25 -0.5 0
0.5 -0.5 0
0.25 -0.25 0
0.5 -0.25 0
0 -0.25 0
0.25 -0.25 0
0 0 0
0.25 0 0
0.25 -0.25 0
0.5 -0.25 0
0.25 0 0
0.5 0 0
0.5 -0.5 0
0.75 -0.5 0
0.5 -0.25 0
0.75 -0.25 0
0.75 -0.5 0
1 -0.5 0
0.75 -0.25 0
1 -0.25 0
0.5 -0.25 0
0.75 -0.25 0
0.5 0 0
0.75 0 0
0.75 -0.25 0
1 -0.25 0
0.75 0 0
1 0 0
-1 0 0
-0.75 0 0
-1 0.25 0
-0.75 0.25 0
-0.75 0 0
-0.5 0 0
-0.75 0.25 0
-0.5 0.25 0
-1 0.25 0
-0.75 0.25 0
-1 0.5 0
-0.75 0.5 0
-0.75 0.25 0
-0.5 0.25 0
-0.75 0.5 0
-0.5 0.5 0
-0.5 0 0
-0.25 0 0
-0.5 0.25 0
-0.25 0.25 0
-0.25 0 0
0 0 0
-0.25 0.25 0
0 0.25 0
-0.5 0.25 0
-0.25 0.25 0
-0.5 0.5 0
-0.25 0.5 0
-0.25 0.25 0
0 0.25 0
-0.25 0.5 0
0 0.5 0
-1 0.5 0
-0.75 0.5 0
-1 0.75 0
-0.75 0.75 0
-0.75 0.5 0
-0.5 0.5 0
-0.75 0.75 0
-0.5 0.75 0
-1 0.75 0
-0.75 0.75 0
-1 1 0
-0.75 1 0
-0.75 0.75 0
-0.5 0.75 0
-0.75 1 0
-0.5 1 0
-0.5 0.5 0
-0.25 0.5 0
-0.5 0.75 0
-0.25 0.75 0
-0.25 0.5 0
0 0.5 0
-0.25 0.75 0
0 0.75 0
-0.5 0.75 0
-0.25 0.75 0
-0.5 1 0
-0.25 1 0
-0.25 0.75 0
0 0.75 0
-0.25 1 0
0 1 0
0 0 0
0.25 0 0
0 0.25 0
0.25 0.25 0
0.25 0 0
0.5 0 0
0.25 0.25 0
0.5 0.25 0
0 0.25 0
0.25 0.25 0
0 0.5 0
0.25 0.5 0
0.25 0.25 0
0.5 0.25 0
0.25 0.5 0
0.5 0.5 0
0.5 0 0
0.75 0 0
0.5 0.25 0
0.75 0.25 0
0.75 0 0
1 0 0
0.75 0.25 0
1 0.25 0
0.5 0.25 0
0.75 0.25 0
0.5 0.5 0
0.75 0.5 0
0.75 0.25 0
1 0.25 0
0.75 0.5 0
1 0.5 0
0 0.5 0
0.25 0.5 0
0 0.75 0
0.25 0.75 0
0.25 0.5 0
0.5 0.5 0
0.25 0.75 0
0.5 0.75 0
0 0.75 0
0.25 0.75 0
0 1 0
0.25 1 0
0.25 0.75 0
0.5 0.75 0
0.25 1 0
0.5 1 0
0.5 0.5 0
0.75 0.5 0
0.5 0.75 0
0.75 0.75 0
0.75 0.5 0
1 0.5 0
0.75 0.75 0
1 0.75 0
0.5 0.75 0
0.75 0.75 0
0.5 1 0
0.75 1 0
0.75 0.75 0
1 0.75 0
0.75 1 0
1 1 0

CELLS 64 320
4	0	1	3	2
4	4	5	7	6
4	8	9	11	10
4	12	13	15	14
4	16	17	19	18
4	20	21	23	22
4	24	25	27	26
4	28	29	31	30
4	32	33	35	34
4	36	37	39	38
4	40	41	43	42
4	44	45	47	46
4	48	49	51	50
4	52	53	55	54
4	56	57	59	58
4	60	61	63	62
4	64	65	67	66
4	68	69	71	70
4	72	73	75	74
4	76	77	79	78
4	80	81	83	82
4	84	85	87	86
4	88	89	91	90
4	92	93	95	94
4	96	97	99	98
4	100	101	103	102
4	104	105	107	106
4	108	109	111	110
4	112	113	115	114
4	116	117	119	118
4	120	121	123	122
4	124	125	127	126
4	128	129	131	130
4	132	133	135	134
4	136	137	139	138
4	140	141	143	142
4	144	145	147	146
4	148	149	151	150
4	152	153	155	154
4	156	157	159	158
4	160	161	163	162
4	164	165	167	166
4	168	169	171	170
4	172	173	175	174
4	176	177	179	178
4	180	181	183	182
4	184	185	187	186
4	188	189	191	190
4	192	193	195	194
4	196	197	199	198
4	200	201	203	202
4	204	205	207	206
4	208	209	211	210
4	212	213	215	214
4	216	217	219	218
4	220	221	223	222
4	224	225	227	226
4	228	229	231	230
4	232	233	235	234
4	236	237	239	238
4	240	241	243	242
4	244	245	247	246
4	248	249	251	250
4	252	253	255	254

CELL_TYPES 64
 9 9 9 9 9 9 9 9 9 9 9 9 9 9 9 9 9 9 9 9 9 9 9 9 9 9 9 9 9 9 9 9 9 9 9 9 9 9 9 9 9 9 9 9 9 9 9 9 9 9 9 9 9 9 9 9 9 9 9 9 9 9 9 9
POINT_DATA 256
VECTORS gradient double
0.497861 -0.457371 0
-0.181755 -0.0140208 0
0.714694 -0.491753 0
-0.124339 -0.489927 0
-0.494811 0.0405865 0
-0.156107 0.444743 0
-2.04952 0.904857 0
-1.3623 -11.6097 0
0.756145 -0.853494 0
1.33145 -2.48283 0
1.01624 -0.436856 0
-11.2779 -1.72702 0
0.0338175 -0.436143 0
-0.649839 -22.9293 0
-22.562 -0.87615 0
-10.1744 -10.7343 0
0.459693 0.456706 0
0.713527 0.247381 0
1.83008 -11.682 0
2.41874 0.935531 0
0.387114 0.188811 0
0.0936579 0.0257565 0
0.503709 -0.45938 0
-0.0819822 -0.325919 0
1.14641 -22.9211 0
0.346015 -0.255943 0
10.7145 -10.6318 0
23.0273 -0.703204 0
-0.929584 -2.34403 0
-0.120105 -0.697434 0
11.7519 -1.57415 0
-0.654943 -0.335482 0
1.01425 0.342992 0
-11.2986 1.68534 0
0.517055 1.01302 0
1.29429 2.53639 0
-22.533 1.15448 0
-10.1321 10.1996 0
-0.0645317 0.440528 0
-0.654133 22.9222 0
0.474532 0.694145 0
-0.13932 0.552193 0
0.0379154 0.414118 0
-0.243593 -0.0672742 0
-2.16345 -0.932243 0
-1.43152 11.7158 0
-0.60837 -0.161875 0
-0.201728 -0.489728 0
10.6307 10.142 0
23.0177 1.03023 0
1.24475 22.8969 0
0.504208 0.274713 0
11.8064 1.63613 0
-0.63857 0.374517 0
-0.813456 2.39538 0
-0.0763323 0.826247 0
1.92461 11.7551 0
2.60686 -0.978823 0
0.516407 -0.520321 0
0.966525 -0.238317 0
0.619505 0.482181 0
-0.0347697 0.476151 0
0.607895 -0.139353 0
0.276367 0.172027 0
0.120664 0.0276555 0
-0.158096 0.405777 0
0.571461 -0.338043 0
-0.0807764 -0.272139 0
-0.477243 0.448398 0
0.162814 0.827536 0
-2.073 1.16212 0
-1.27198 -11.4898 0
0.665967 -0.711493 0
1.40248 -2.30027 0
0.975344 -0.332665 0
-11.2719 -1.5796 0
0.0215859 -0.200602 0
-0.744377 -22.717 0
-22.4869 -0.802302 0
-9.80833 -10.2915 0
0.931068 0.829539 0
1.2501 0.407546 0
2.12629 -11.4667 0
2.79035 1.0951 0
0.855095 0.366031 0
0.616399 -0.0158958 0
0.771181 -0.35943 0
0.133891 -0.408231 0
1.2715 -22.743 0
0.737286 -0.171848 0
11.1124 -10.3317 0
23.2849 -0.80824 0
-0.619515 -2.24411 0
-0.164848 -0.559774 0
11.9518 -1.51186 0
0.197109 -0.186941 0
1.005 0.384943 0
-11.3116 1.77851 0
0.707311 0.837305 0
1.41962 2.46465 0
-22.4614 1.09813 0
-9.752 10.4754 0
0.166548 0.357719 0
-0.642213 22.9183 0
0.615035 0.478496 0
-0.0366979 0.473251 0
0.291985 0.24149 0
-0.0687952 -0.185743 0
-1.93408 -0.956826 0
-1.23542 11.6857 0
-0.305268 -0.432165 0
0.106889 -0.280152 0
11.007 10.5599 0
23.2737 0.978277 0
1.06331 22.9284 0
0.562499 0.181953 0
12.0226 1.64904 0
0.159496 0.189322 0
-0.610375 2.26021 0
-0.309393 0.548932 0
1.92009 11.6331 0
2.62605 -1.07973 0
0.59628 -0.281199 0
0.946893 -0.497741 0
0.759823 0.367291 0
0.0409963 0.384731 0
0.708914 -0.253839 0
0.491104 0.0944365 0
0.0361316 0.437803 0
-0.231298 0.592026 0
0.204336 0.142 0
-0.370475 0.0438375 0
-0.594112 0.630272 0
-0.203851 1.14934 0
-2.24678 1.47771 0
-1.4555 -11.2057 0
0.262995 -0.184788 0
1.02452 -1.8615 0
0.541468 0.0987111 0
-11.56 -1.19947 0
-0.158513 0.211783 0
-0.585225 -22.4679 0
-22.7978 -0.515764 0
-10.5203 -10.0678 0
0.50678 1.13221 0
0.955626 0.552809 0
1.75396 -11.2595 0
2.49726 1.33972 0
0.598977 0.518261 0
0.35607 0.1929 0
0.570642 -0.0876267 0
-0.0889747 -0.160426 0
1.14702 -22.457 0
0.374149 0.0379839 0
10.2428 -9.98254 0
22.978 -0.647685 0
-0.884965 -2.0448 0
-0.368289 -0.418028 0
11.7941 -1.3132 0
-0.110612 0.0617602 0
0.528908 0.724827 0
-11.4877 2.01553 0
0.264864 1.19589 0
1.09676 2.84304 0
-22.8049 1.30237 0
-10.6234 10.8431 0
-0.249295 0.767534 0
-0.78734 23.414 0
0.205039 0.915065 0
-0.317887 0.964923 0
-0.033655 0.839571 0
-0.374297 0.303516 0
-2.29417 -0.460739 0
-1.62227 12.1647 0
-0.554356 -0.100339 0
-0.262317 0.617848 0
10.2984 10.8016 0
22.9994 1.25733 0
1.19857 23.3878 0
0.365381 0.741402 0
11.752 2.02489 0
-0.0867276 0.629191 0
-1.01972 2.81915 0
-0.507915 1.06889 0
1.71261 12.1892 0
2.44836 -0.570157 0
0.134895 0.628419 0
0.58385 -0.12322 0
0.46391 0.837725 0
-0.233878 0.79913 0
0.42114 0.233991 0
0.11638 0.590946 0
0.400406 0.292019 0
0.355289 0.147129 0
0.243733 0.268846 0
0.254288 0.17009 0
0.256929 -0.0384589 0
0.236193 0.543342 0
0.238953 0.181826 0
0.248199 0.135312 0
0.0336694 0.155096 0
0.26188 0.159583 0
0.710043 0.202528 0
0.231927 0.219933 0
0.253174 0.178537 0
0.259882 0.168688 0
0.253033 0.233178 0
0.201311 0.167534 0
0.393797 0.538071 0
0.396215 -0.125235 0
0.281036 0.134962 0
0.291992 0.0683121 0
0.306491 0.0532463 0
0.349422 0.0649056 0
0.273568 0.0624254 0
0.273478 -0.00509711 0
0.267888 0.169438 0
0.272084 0.0706696 0
0.198942 0.168107 0
0.186121 0.084531 0
0.266915 0.0725841 0
0.267002 -0.00146335 0
0.184064 0.085261 0
0.190265 0.000124828 0
0.722926 0.430938 0
0.232092 0.276304 0
-0.109499 0.50604 0
0.108953 0.328718 0
0.253843 0.262298 0
0.201868 0.176888 0
0.106844 0.307653 0
0.104562 0.192558 0
0.0914223 0.387054 0
0.108426 0.310216 0
0.0822345 0.446727 0
-0.000474509 0.305229 0
0.112871 0.30414 0
0.106107 0.19409 0
0.00186395 0.300409 0
-3.27358e-05 0.188561 0
0.198615 0.175983 0
0.185282 0.0877261 0
0.101347 0.191049 0
0.0937339 0.0954105 0
0.183657 0.087987 0
0.190656 0.000289825 0
0.0922728 0.0947384 0
0.0969892 0.00110873 0
0.10267 0.193349 0
0.0943557 0.0967688 0
-0.000265354 0.188591 0
-0.00115471 0.091988 0
0.0929422 0.0960855 0
0.0977013 0.00139218 0
-0.0013181 0.0911997 0
-0.0018357 0.0017391 0
SCALARS solution double 1
LOOKUP_TABLE default
0.562506 0.524233 0.652747 0.444703 0.501096 0.669924 0.281146 1.23258 0.624276 0.262538 0.889703 1.34694 0.126906 0.523504 0.646847 7.99296 0.66784 0.434357 1.23091 0.174087 0.458143 0.4145 0.344249 0.427997 0.519536 0.0164603 7.99432 0.516704 0.157733 0.389999 1.22734 0.648868 0.894967 1.34737 0.621362 0.26459 0.637415 8.00335 0.0895849 0.602831 0.646428 0.441233 0.522281 0.521128 0.242075 1.30913 0.484161 0.714893 8.00476 0.512513 0.592758 -0.0354174 1.23063 0.649943 0.139829 0.371684 1.30414 0.127929 0.716235 0.400526 0.328305 0.408554 0.437832 0.350461 0.414017 0.403821 0.428788 0.226634 0.379156 0.520949 0.0502804 1.02248 0.390767 0.0265805 0.652378 1.13043 -0.125599 0.312138 0.424275 7.72108 0.516619 0.136767 1.02268 -0.15208 0.166826 0.00673839 0.0313367 0.0573249 0.322238 -0.286793 7.71052 0.150997 -0.129349 0.0529447 0.856921 0.189356 0.653157 1.12511 0.370791 -0.0149552 0.413905 7.72212 -0.177626 0.263675 0.407204 0.184377 0.345241 0.303401 -0.00183143 0.973574 0.282464 0.395283 7.7115 0.147667 0.267758 -0.312645 0.855829 0.190079 -0.152463 0.0527286 0.970286 -0.170318 0.392158 0.114926 0.0146908 0.057542 0.134492 0.0060083 0.522742 0.520288 0.434301 0.304945 0.483345 0.71123 0.119369 1.16035 0.410049 0.134288 0.509416 1.04451 -0.0223843 0.449239 0.333975 7.77783 0.712864 0.401096 1.16423 0.0448688 0.437569 0.345387 0.232537 0.326497 0.445646 -0.130393 7.78839 0.354647 0.0336422 0.301853 1.05811 0.445218 0.510192 1.04516 0.187758 -0.0841699 0.336874 7.77514 -0.237994 0.243878 0.205612 0.0787583 0.0101456 0.0543193 -0.0999227 0.937739 0.0475007 0.196404 7.78562 0.364352 0.234326 -0.306655 1.06288 0.444232 -0.154269 0.133441 0.937896 -0.127986 0.200052 0.0626321 0.0442988 0.157004 0.0665916 0.00765441 0.33763 0.239724 0.263618 0.200879 0.225516 0.196752 0.198137 0.143158 0.245911 0.197278 0.243468 0.15779 0.197843 0.13504 0.149523 0.0949631 0.19605 0.0667908 0.142912 0.0659317 0.0793732 0.00441491 0.0674322 0.000942202 0.134941 0.0662093 0.0944394 0.0467417 0.06629 0.000453193 0.0464715 0.000578124 0.244622 0.157784 0.0840847 0.0738864 0.149618 0.0947324 0.0746525 0.0477638 0.100742 0.0766089 0.0059767 0.00011143 0.0758232 0.0481845 -0.00041001 -0.000583583 0.0942288 0.046781 0.0477629 0.0236205 0.0465021 0.000578733 0.0234412 0.000413027 0.048139 0.0238036 -0.000594772 -0.000408243 0.023613 0.000415734 -0.000405922 -9.86989e-06 
SCALARS u_post double 1
LOOKUP_TABLE default
0.533643 0.507136 0.649709 0.578239 0.453992 0.467469 0.621932 1.56486 0.593207 0.621049 0.683248 1.66539 1.17345 1.02387 1.11777 4.99768 0.46523 0.387532 1.57093 0.525499 0.442585 0.378261 0.480559 0.421775 1.03114 1.07647 4.98683 0.979471 0.521116 0.369992 1.52975 0.439138 0.677343 1.67131 0.569019 0.627896 1.13893 4.97568 1.1782 1.04787 0.623428 0.584843 0.481702 0.515882 0.622308 1.59494 0.466741 0.4953 4.96479 0.99847 1.05767 1.06843 1.53645 0.43415 0.515317 0.343539 1.59974 0.513475 0.493273 0.375791 0.47418 0.395759 0.425541 0.309316 0.376383 0.383854 0.424293 0.371006 0.329248 0.305967 0.413957 1.34713 0.375257 0.408556 0.433399 1.41674 0.964245 0.814892 0.869732 4.69401 0.311307 0.107134 1.34108 0.207199 0.162557 -0.0229224 0.164412 0.041254 0.793324 0.759563 4.71624 0.652285 0.204893 -0.000947479 1.19648 -0.00576562 0.431376 1.4215 0.346543 0.370763 0.87933 4.68338 0.925785 0.750111 0.397637 0.330255 0.305004 0.286848 0.370501 1.29052 0.242118 0.176783 4.70556 0.659243 0.730965 0.746084 1.20172 -0.00633168 0.191545 0.000544042 1.28387 0.188459 0.181259 0.0816132 0.148749 0.0418562 0.126915 -0.0277843 0.483644 0.513266 0.41566 0.439965 0.461441 0.501019 0.480358 1.46173 0.360793 0.484882 0.30327 1.38242 1.03579 0.911547 0.842519 4.76867 0.496014 0.372886 1.46834 0.419677 0.426453 0.305038 0.377507 0.310564 0.930437 0.972831 4.74679 0.818595 0.416538 0.267098 1.3624 0.216812 0.305873 1.37633 0.135924 0.252738 0.835306 4.77993 0.803784 0.712223 0.190781 0.209087 -0.0257419 0.0413958 0.247339 1.26374 0.00394775 -0.0073654 4.75797 0.808938 0.733538 0.779787 1.35737 0.219339 0.223484 0.106627 1.26959 0.226351 -0.0129857 0.00335298 0.185771 0.15049 0.0446438 -0.0297532 0.336161 0.241336 0.264647 0.201155 0.235823 0.202006 0.200468 0.133568 0.257839 0.201154 0.244915 0.146461 0.198964 0.135276 0.149038 0.0937384 0.201863 0.0767221 0.133616 0.0676589 0.0828173 0.00385918 0.0674488 -0.0012136 0.135102 0.066484 0.0940612 0.046522 0.0664452 -8.92297e-05 0.0465959 -1.54459e-05 0.245696 0.1462 0.0967717 0.077746 0.148949 0.0938689 0.0754733 0.0481942 0.103893 0.0769018 0.00453421 -0.00143049 0.0755772 0.0480877 7.25614e-05 2.33674e-05 0.0941745 0.0464693 0.0480425 0.0236317 0.0465518 -1.79625e-05 0.0236344 -3.67577e-05 0.0480606 0.0235972 2.46939e-05 3.81428e-05 0.023621 1.08e-06 6.10652e-07 2.63428e-06 
