# vtk DataFile Version 3.0
#This file was generated by the deal.II library on 2020/8/22 at 21:54:13
ASCII
DATASET UNSTRUCTURED_GRID

POINTS 16384 double
-1 -1 0
-1 -0.979167 0
-1 -0.958333 0
-1 -0.9375 0
-0.9375 -1 0
-0.9375 -0.979167 0
-0.9375 -0.958333 0
-0.9375 -0.9375 0
-1 -1 0
-0.979167 -1 0
-0.958333 -1 0
-0.9375 -1 0
-1 -0.9375 0
-0.979167 -0.9375 0
-0.958333 -0.9375 0
-0.9375 -0.9375 0
-0.9375 -1 0
-0.9375 -0.979167 0
-0.9375 -0.958333 0
-0.9375 -0.9375 0
-0.875 -1 0
-0.875 -0.979167 0
-0.875 -0.958333 0
-0.875 -0.9375 0
-0.9375 -1 0
-0.916667 -1 0
-0.895833 -1 0
-0.875 -1 0
-0.9375 -0.9375 0
-0.916667 -0.9375 0
-0.895833 -0.9375 0
-0.875 -0.9375 0
-1 -0.9375 0
-1 -0.916667 0
-1 -0.895833 0
-1 -0.875 0
-0.9375 -0.9375 0
-0.9375 -0.916667 0
-0.9375 -0.895833 0
-0.9375 -0.875 0
-1 -0.9375 0
-0.979167 -0.9375 0
-0.958333 -0.9375 0
-0.9375 -0.9375 0
-1 -0.875 0
-0.979167 -0.875 0
-0.958333 -0.875 0
-0.9375 -0.875 0
-0.9375 -0.9375 0
-0.9375 -0.916667 0
-0.9375 -0.895833 0
-0.9375 -0.875 0
-0.875 -0.9375 0
-0.875 -0.916667 0
-0.875 -0.895833 0
-0.875 -0.875 0
-0.9375 -0.9375 0
-0.916667 -0.9375 0
-0.895833 -0.9375 0
-0.875 -0.9375 0
-0.9375 -0.875 0
-0.916667 -0.875 0
-0.895833 -0.875 0
-0.875 -0.875 0
-0.875 -1 0
-0.875 -0.979167 0
-0.875 -0.958333 0
-0.875 -0.9375 0
-0.8125 -1 0
-0.8125 -0.979167 0
-0.8125 -0.958333 0
-0.8125 -0.9375 0
-0.875 -1 0
-0.854167 -1 0
-0.833333 -1 0
-0.8125 -1 0
-0.875 -0.9375 0
-0.854167 -0.9375 0
-0.833333 -0.9375 0
-0.8125 -0.9375 0
-0.8125 -1 0
-0.8125 -0.979167 0
-0.8125 -0.958333 0
-0.8125 -0.9375 0
-0.75 -1 0
-0.75 -0.979167 0
-0.75 -0.958333 0
-0.75 -0.9375 0
-0.8125 -1 0
-0.791667 -1 0
-0.770833 -1 0
-0.75 -1 0
-0.8125 -0.9375 0
-0.791667 -0.9375 0
-0.770833 -0.9375 0
-0.75 -0.9375 0
-0.875 -0.9375 0
-0.875 -0.916667 0
-0.875 -0.895833 0
-0.875 -0.875 0
-0.8125 -0.9375 0
-0.8125 -0.916667 0
-0.8125 -0.895833 0
-0.8125 -0.875 0
-0.875 -0.9375 0
-0.854167 -0.9375 0
-0.833333 -0.9375 0
-0.8125 -0.9375 0
-0.875 -0.875 0
-0.854167 -0.875 0
-0.833333 -0.875 0
-0.8125 -0.875 0
-0.8125 -0.9375 0
-0.8125 -0.916667 0
-0.8125 -0.895833 0
-0.8125 -0.875 0
-0.75 -0.9375 0
-0.75 -0.916667 0
-0.75 -0.895833 0
-0.75 -0.875 0
-0.8125 -0.9375 0
-0.791667 -0.9375 0
-0.770833 -0.9375 0
-0.75 -0.9375 0
-0.8125 -0.875 0
-0.791667 -0.875 0
-0.770833 -0.875 0
-0.75 -0.875 0
-1 -0.875 0
-1 -0.854167 0
-1 -0.833333 0
-1 -0.8125 0
-0.9375 -0.875 0
-0.9375 -0.854167 0
-0.9375 -0.833333 0
-0.9375 -0.8125 0
-1 -0.875 0
-0.979167 -0.875 0
-0.958333 -0.875 0
-0.9375 -0.875 0
-1 -0.8125 0
-0.979167 -0.8125 0
-0.958333 -0.8125 0
-0.9375 -0.8125 0
-0.9375 -0.875 0
-0.9375 -0.854167 0
-0.9375 -0.833333 0
-0.9375 -0.8125 0
-0.875 -0.875 0
-0.875 -0.854167 0
-0.875 -0.833333 0
-0.875 -0.8125 0
-0.9375 -0.875 0
-0.916667 -0.875 0
-0.895833 -0.875 0
-0.875 -0.875 0
-0.9375 -0.8125 0
-0.916667 -0.8125 0
-0.895833 -0.8125 0
-0.875 -0.8125 0
-1 -0.8125 0
-1 -0.791667 0
-1 -0.770833 0
-1 -0.75 0
-0.9375 -0.8125 0
-0.9375 -0.791667 0
-0.9375 -0.770833 0
-0.9375 -0.75 0
-1 -0.8125 0
-0.979167 -0.8125 0
-0.958333 -0.8125 0
-0.9375 -0.8125 0
-1 -0.75 0
-0.979167 -0.75 0
-0.958333 -0.75 0
-0.9375 -0.75 0
-0.9375 -0.8125 0
-0.9375 -0.791667 0
-0.9375 -0.770833 0
-0.9375 -0.75 0
-0.875 -0.8125 0
-0.875 -0.791667 0
-0.875 -0.770833 0
-0.875 -0.75 0
-0.9375 -0.8125 0
-0.916667 -0.8125 0
-0.895833 -0.8125 0
-0.875 -0.8125 0
-0.9375 -0.75 0
-0.916667 -0.75 0
-0.895833 -0.75 0
-0.875 -0.75 0
-0.875 -0.875 0
-0.875 -0.854167 0
-0.875 -0.833333 0
-0.875 -0.8125 0
-0.8125 -0.875 0
-0.8125 -0.854167 0
-0.8125 -0.833333 0
-0.8125 -0.8125 0
-0.875 -0.875 0
-0.854167 -0.875 0
-0.833333 -0.875 0
-0.8125 -0.875 0
-0.875 -0.8125 0
-0.854167 -0.8125 0
-0.833333 -0.8125 0
-0.8125 -0.8125 0
-0.8125 -0.875 0
-0.8125 -0.854167 0
-0.8125 -0.833333 0
-0.8125 -0.8125 0
-0.75 -0.875 0
-0.75 -0.854167 0
-0.75 -0.833333 0
-0.75 -0.8125 0
-0.8125 -0.875 0
-0.791667 -0.875 0
-0.770833 -0.875 0
-0.75 -0.875 0
-0.8125 -0.8125 0
-0.791667 -0.8125 0
-0.770833 -0.8125 0
-0.75 -0.8125 0
-0.875 -0.8125 0
-0.875 -0.791667 0
-0.875 -0.770833 0
-0.875 -0.75 0
-0.8125 -0.8125 0
-0.8125 -0.791667 0
-0.8125 -0.770833 0
-0.8125 -0.75 0
-0.875 -0.8125 0
-0.854167 -0.8125 0
-0.833333 -0.8125 0
-0.8125 -0.8125 0
-0.875 -0.75 0
-0.854167 -0.75 0
-0.833333 -0.75 0
-0.8125 -0.75 0
-0.8125 -0.8125 0
-0.8125 -0.791667 0
-0.8125 -0.770833 0
-0.8125 -0.75 0
-0.75 -0.8125 0
-0.75 -0.791667 0
-0.75 -0.770833 0
-0.75 -0.75 0
-0.8125 -0.8125 0
-0.791667 -0.8125 0
-0.770833 -0.8125 0
-0.75 -0.8125 0
-0.8125 -0.75 0
-0.791667 -0.75 0
-0.770833 -0.75 0
-0.75 -0.75 0
-0.75 -1 0
-0.75 -0.979167 0
-0.75 -0.958333 0
-0.75 -0.9375 0
-0.6875 -1 0
-0.6875 -0.979167 0
-0.6875 -0.958333 0
-0.6875 -0.9375 0
-0.75 -1 0
-0.729167 -1 0
-0.708333 -1 0
-0.6875 -1 0
-0.75 -0.9375 0
-0.729167 -0.9375 0
-0.708333 -0.9375 0
-0.6875 -0.9375 0
-0.6875 -1 0
-0.6875 -0.979167 0
-0.6875 -0.958333 0
-0.6875 -0.9375 0
-0.625 -1 0
-0.625 -0.979167 0
-0.625 -0.958333 0
-0.625 -0.9375 0
-0.6875 -1 0
-0.666667 -1 0
-0.645833 -1 0
-0.625 -1 0
-0.6875 -0.9375 0
-0.666667 -0.9375 0
-0.645833 -0.9375 0
-0.625 -0.9375 0
-0.75 -0.9375 0
-0.75 -0.916667 0
-0.75 -0.895833 0
-0.75 -0.875 0
-0.6875 -0.9375 0
-0.6875 -0.916667 0
-0.6875 -0.895833 0
-0.6875 -0.875 0
-0.75 -0.9375 0
-0.729167 -0.9375 0
-0.708333 -0.9375 0
-0.6875 -0.9375 0
-0.75 -0.875 0
-0.729167 -0.875 0
-0.708333 -0.875 0
-0.6875 -0.875 0
-0.6875 -0.9375 0
-0.6875 -0.916667 0
-0.6875 -0.895833 0
-0.6875 -0.875 0
-0.625 -0.9375 0
-0.625 -0.916667 0
-0.625 -0.895833 0
-0.625 -0.875 0
-0.6875 -0.9375 0
-0.666667 -0.9375 0
-0.645833 -0.9375 0
-0.625 -0.9375 0
-0.6875 -0.875 0
-0.666667 -0.875 0
-0.645833 -0.875 0
-0.625 -0.875 0
-0.625 -1 0
-0.625 -0.979167 0
-0.625 -0.958333 0
-0.625 -0.9375 0
-0.5625 -1 0
-0.5625 -0.979167 0
-0.5625 -0.958333 0
-0.5625 -0.9375 0
-0.625 -1 0
-0.604167 -1 0
-0.583333 -1 0
-0.5625 -1 0
-0.625 -0.9375 0
-0.604167 -0.9375 0
-0.583333 -0.9375 0
-0.5625 -0.9375 0
-0.5625 -1 0
-0.5625 -0.979167 0
-0.5625 -0.958333 0
-0.5625 -0.9375 0
-0.5 -1 0
-0.5 -0.979167 0
-0.5 -0.958333 0
-0.5 -0.9375 0
-0.5625 -1 0
-0.541667 -1 0
-0.520833 -1 0
-0.5 -1 0
-0.5625 -0.9375 0
-0.541667 -0.9375 0
-0.520833 -0.9375 0
-0.5 -0.9375 0
-0.625 -0.9375 0
-0.625 -0.916667 0
-0.625 -0.895833 0
-0.625 -0.875 0
-0.5625 -0.9375 0
-0.5625 -0.916667 0
-0.5625 -0.895833 0
-0.5625 -0.875 0
-0.625 -0.9375 0
-0.604167 -0.9375 0
-0.583333 -0.9375 0
-0.5625 -0.9375 0
-0.625 -0.875 0
-0.604167 -0.875 0
-0.583333 -0.875 0
-0.5625 -0.875 0
-0.5625 -0.9375 0
-0.5625 -0.916667 0
-0.5625 -0.895833 0
-0.5625 -0.875 0
-0.5 -0.9375 0
-0.5 -0.916667 0
-0.5 -0.895833 0
-0.5 -0.875 0
-0.5625 -0.9375 0
-0.541667 -0.9375 0
-0.520833 -0.9375 0
-0.5 -0.9375 0
-0.5625 -0.875 0
-0.541667 -0.875 0
-0.520833 -0.875 0
-0.5 -0.875 0
-0.75 -0.875 0
-0.75 -0.854167 0
-0.75 -0.833333 0
-0.75 -0.8125 0
-0.6875 -0.875 0
-0.6875 -0.854167 0
-0.6875 -0.833333 0
-0.6875 -0.8125 0
-0.75 -0.875 0
-0.729167 -0.875 0
-0.708333 -0.875 0
-0.6875 -0.875 0
-0.75 -0.8125 0
-0.729167 -0.8125 0
-0.708333 -0.8125 0
-0.6875 -0.8125 0
-0.6875 -0.875 0
-0.6875 -0.854167 0
-0.6875 -0.833333 0
-0.6875 -0.8125 0
-0.625 -0.875 0
-0.625 -0.854167 0
-0.625 -0.833333 0
-0.625 -0.8125 0
-0.6875 -0.875 0
-0.666667 -0.875 0
-0.645833 -0.875 0
-0.625 -0.875 0
-0.6875 -0.8125 0
-0.666667 -0.8125 0
-0.645833 -0.8125 0
-0.625 -0.8125 0
-0.75 -0.8125 0
-0.75 -0.791667 0
-0.75 -0.770833 0
-0.75 -0.75 0
-0.6875 -0.8125 0
-0.6875 -0.791667 0
-0.6875 -0.770833 0
-0.6875 -0.75 0
-0.75 -0.8125 0
-0.729167 -0.8125 0
-0.708333 -0.8125 0
-0.6875 -0.8125 0
-0.75 -0.75 0
-0.729167 -0.75 0
-0.708333 -0.75 0
-0.6875 -0.75 0
-0.6875 -0.8125 0
-0.6875 -0.791667 0
-0.6875 -0.770833 0
-0.6875 -0.75 0
-0.625 -0.8125 0
-0.625 -0.791667 0
-0.625 -0.770833 0
-0.625 -0.75 0
-0.6875 -0.8125 0
-0.666667 -0.8125 0
-0.645833 -0.8125 0
-0.625 -0.8125 0
-0.6875 -0.75 0
-0.666667 -0.75 0
-0.645833 -0.75 0
-0.625 -0.75 0
-0.625 -0.875 0
-0.625 -0.854167 0
-0.625 -0.833333 0
-0.625 -0.8125 0
-0.5625 -0.875 0
-0.5625 -0.854167 0
-0.5625 -0.833333 0
-0.5625 -0.8125 0
-0.625 -0.875 0
-0.604167 -0.875 0
-0.583333 -0.875 0
-0.5625 -0.875 0
-0.625 -0.8125 0
-0.604167 -0.8125 0
-0.583333 -0.8125 0
-0.5625 -0.8125 0
-0.5625 -0.875 0
-0.5625 -0.854167 0
-0.5625 -0.833333 0
-0.5625 -0.8125 0
-0.5 -0.875 0
-0.5 -0.854167 0
-0.5 -0.833333 0
-0.5 -0.8125 0
-0.5625 -0.875 0
-0.541667 -0.875 0
-0.520833 -0.875 0
-0.5 -0.875 0
-0.5625 -0.8125 0
-0.541667 -0.8125 0
-0.520833 -0.8125 0
-0.5 -0.8125 0
-0.625 -0.8125 0
-0.625 -0.791667 0
-0.625 -0.770833 0
-0.625 -0.75 0
-0.5625 -0.8125 0
-0.5625 -0.791667 0
-0.5625 -0.770833 0
-0.5625 -0.75 0
-0.625 -0.8125 0
-0.604167 -0.8125 0
-0.583333 -0.8125 0
-0.5625 -0.8125 0
-0.625 -0.75 0
-0.604167 -0.75 0
-0.583333 -0.75 0
-0.5625 -0.75 0
-0.5625 -0.8125 0
-0.5625 -0.791667 0
-0.5625 -0.770833 0
-0.5625 -0.75 0
-0.5 -0.8125 0
-0.5 -0.791667 0
-0.5 -0.770833 0
-0.5 -0.75 0
-0.5625 -0.8125 0
-0.541667 -0.8125 0
-0.520833 -0.8125 0
-0.5 -0.8125 0
-0.5625 -0.75 0
-0.541667 -0.75 0
-0.520833 -0.75 0
-0.5 -0.75 0
-1 -0.75 0
-1 -0.729167 0
-1 -0.708333 0
-1 -0.6875 0
-0.9375 -0.75 0
-0.9375 -0.729167 0
-0.9375 -0.708333 0
-0.9375 -0.6875 0
-1 -0.75 0
-0.979167 -0.75 0
-0.958333 -0.75 0
-0.9375 -0.75 0
-1 -0.6875 0
-0.979167 -0.6875 0
-0.958333 -0.6875 0
-0.9375 -0.6875 0
-0.9375 -0.75 0
-0.9375 -0.729167 0
-0.9375 -0.708333 0
-0.9375 -0.6875 0
-0.875 -0.75 0
-0.875 -0.729167 0
-0.875 -0.708333 0
-0.875 -0.6875 0
-0.9375 -0.75 0
-0.916667 -0.75 0
-0.895833 -0.75 0
-0.875 -0.75 0
-0.9375 -0.6875 0
-0.916667 -0.6875 0
-0.895833 -0.6875 0
-0.875 -0.6875 0
-1 -0.6875 0
-1 -0.666667 0
-1 -0.645833 0
-1 -0.625 0
-0.9375 -0.6875 0
-0.9375 -0.666667 0
-0.9375 -0.645833 0
-0.9375 -0.625 0
-1 -0.6875 0
-0.979167 -0.6875 0
-0.958333 -0.6875 0
-0.9375 -0.6875 0
-1 -0.625 0
-0.979167 -0.625 0
-0.958333 -0.625 0
-0.9375 -0.625 0
-0.9375 -0.6875 0
-0.9375 -0.666667 0
-0.9375 -0.645833 0
-0.9375 -0.625 0
-0.875 -0.6875 0
-0.875 -0.666667 0
[...]
POINT_DATA 16384
SCALARS u_hat double 1
LOOKUP_TABLE default
1.49736e-05 2.4614e-05 4.03127e-05 6.39334e-05 6.44251e-05 0.000106658 0.000174273 0.000276989 1.49594e-05 2.46202e-05 4.03065e-05 6.39471e-05 6.44117e-05 0.000106664 0.000174268 0.000277003 6.44251e-05 0.000106658 0.000174273 0.000276989 0.000229138 0.000379686 0.000620198 0.000986015 6.41092e-05 0.000100101 0.000152845 0.000228284 0.000277375 0.000433132 0.000661334 0.000987772 6.41087e-05 0.000100102 0.000152845 0.000228286 0.000277373 0.000433134 0.000661333 0.000987776 6.44117e-05 0.000106664 0.000174268 0.000277003 0.000229106 0.000379702 0.000620185 0.000986048 0.000277373 0.000433134 0.000661333 0.000987776 0.00098721 0.0015416 0.0023538 0.00351568 0.000277375 0.000433132 0.000661334 0.000987772 0.00098722 0.0015416 0.0023538 0.00351567 0.000229138 0.000379686 0.000620198 0.000986015 0.000670562 0.00111173 0.00181563 0.00288704 0.000227757 0.000334077 0.00047734 0.000669099 0.000986529 0.00144505 0.00206584 0.00289405 0.000670562 0.00111173 0.00181563 0.00288704 0.00161441 0.00267756 0.0043723 0.00695324 0.000667462 0.000916279 0.00122701 0.00161135 0.00289023 0.00396366 0.00531007 0.0069699 0.00098721 0.0015416 0.0023538 0.00351568 0.00289024 0.00451336 0.00689122 0.0102929 0.000986529 0.00144505 0.00206584 0.00289405 0.00351172 0.00514299 0.00735293 0.0103 0.00289024 0.00451336 0.00689122 0.0102929 0.00696045 0.0108694 0.0165959 0.024788 0.00289023 0.00396366 0.00531007 0.0069699 0.0102879 0.014107 0.0189 0.0248061 0.000227713 0.000334098 0.000477322 0.000669145 0.000986481 0.00144507 0.00206582 0.0028941 0.000229106 0.000379702 0.000620185 0.000986048 0.000670493 0.00111177 0.0018156 0.00288711 0.000986481 0.00144507 0.00206582 0.0028941 0.0035116 0.00514305 0.00735288 0.0103001 0.00098722 0.0015416 0.0023538 0.00351567 0.00289027 0.00451335 0.00689123 0.0102928 0.00066738 0.000916316 0.00122698 0.00161143 0.00289015 0.0039637 0.00531003 0.00696999 0.000670493 0.00111177 0.0018156 0.00288711 0.00161429 0.00267761 0.00437225 0.00695336 0.00289015 0.0039637 0.00531003 0.00696999 0.0102877 0.0141071 0.0188999 0.0248063 0.00289027 0.00451335 0.00689123 0.0102928 0.0069605 0.0108693 0.0165959 0.0247879 0.0035116 0.00514305 0.00735288 0.0103001 0.0102819 0.0150569 0.0215275 0.0301547 0.00351172 0.00514299 0.00735293 0.0103 0.0102822 0.0150568 0.0215276 0.0301544 0.0102819 0.0150569 0.0215275 0.0301547 0.0247631 0.0362603 0.0518446 0.0726188 0.0102879 0.014107 0.0189 0.0248061 0.0301218 0.0413002 0.0553343 0.0726233 0.0102877 0.0141071 0.0188999 0.0248063 0.0301213 0.0413004 0.0553341 0.0726237 0.0102822 0.0150568 0.0215276 0.0301544 0.0247636 0.0362601 0.0518448 0.0726183 0.0301213 0.0413004 0.0553341 0.0726237 0.0725435 0.0994608 0.133261 0.174894 0.0301218 0.0413002 0.0553343 0.0726233 0.0725442 0.0994605 0.133261 0.174893 0.00161441 0.00267756 0.0043723 0.00695324 0.00319746 0.00530449 0.00866117 0.0137749 0.00160959 0.00206673 0.00259496 0.00319046 0.00696582 0.0089419 0.0112286 0.0138034 0.00319746 0.00530449 0.00866117 0.0137749 0.00520965 0.00864404 0.0141132 0.022447 0.00319097 0.00383502 0.00451402 0.00519623 0.0138046 0.0165946 0.0195306 0.0224857 0.00696045 0.0108694 0.0165959 0.024788 0.0137885 0.0215321 0.0328761 0.0491046 0.00696582 0.0089419 0.0112286 0.0138034 0.0247933 0.0318256 0.039965 0.0491281 0.0137885 0.0215321 0.0328761 0.0491046 0.0224685 0.0350868 0.0535721 0.0800166 0.0138046 0.0165946 0.0195306 0.0224857 0.0491319 0.0590638 0.0695124 0.080032 0.00520965 0.00864404 0.0141132 0.022447 0.00698264 0.0115867 0.0189172 0.0300884 0.0052 0.00585494 0.00645804 0.00696349 0.0224945 0.0253358 0.0279408 0.0301353 0.00698264 0.0115867 0.0189172 0.0300884 0.00769902 0.0127752 0.0208578 0.0331749 0.00696751 0.00735413 0.00759877 0.00767905 0.0301446 0.0318216 0.0328777 0.0332291 0.0224685 0.0350868 0.0535721 0.0800166 0.0301168 0.0470304 0.0718081 0.107254 0.0224945 0.0253358 0.0279408 0.0301353 0.0800596 0.0901758 0.0994454 0.10726 0.0301168 0.0470304 0.0718081 0.107254 0.0332064 0.051855 0.0791745 0.118257 0.0301446 0.0318216 0.0328777 0.0332291 0.107289 0.113259 0.117017 0.11827 0.0247631 0.0362603 0.0518446 0.0726188 0.0490575 0.0718301 0.102704 0.143854 0.0247933 0.0318256 0.039965 0.0491281 0.0725885 0.0931755 0.117006 0.143831 0.0490575 0.0718301 0.102704 0.143854 0.0799421 0.117047 0.167359 0.23441 0.0491319 0.0590638 0.0695124 0.080032 0.143842 0.172922 0.203511 0.234312 0.0725435 0.0994608 0.133261 0.174894 0.143712 0.197028 0.263989 0.346457 0.0725885 0.0931755 0.117006 0.143831 0.174814 0.22439 0.281783 0.346382 0.143712 0.197028 0.263989 0.346457 0.234185 0.321058 0.430176 0.564552 0.143842 0.172922 0.203511 0.234312 0.346406 0.416443 0.490106 0.564288 0.0799421 0.117047 0.167359 0.23441 0.107156 0.156889 0.224329 0.314203 0.0800596 0.0901758 0.0994454 0.10726 0.234386 0.26401 0.291145 0.314029 0.107156 0.156889 0.224329 0.314203 0.118148 0.172984 0.247341 0.346435 0.107289 0.113259 0.117017 0.11827 0.314107 0.331591 0.34259 0.346261 0.234185 0.321058 0.430176 0.564552 0.313904 0.430346 0.576609 0.756723 0.234386 0.26401 0.291145 0.314029 0.564457 0.635809 0.70115 0.756271 0.313904 0.430346 0.576609 0.756723 0.346105 0.474492 0.63576 0.834352 0.314107 0.331591 0.34259 0.346261 0.75645 0.798561 0.825046 0.833892 0.00160955 0.00206675 0.00259494 0.00319049 0.00696579 0.00894191 0.0112286 0.0138034 0.00161429 0.00267761 0.00437225 0.00695336 0.00319731 0.00530456 0.00866111 0.0137751 0.00696579 0.00894191 0.0112286 0.0138034 0.0247932 0.0318256 0.039965 0.0491281 0.0069605 0.0108693 0.0165959 0.0247879 0.0137886 0.021532 0.0328762 0.0491045 0.00319105 0.00383498 0.00451406 0.00519615 0.0138047 0.0165946 0.0195306 0.0224856 0.00319731 0.00530456 0.00866111 0.0137751 0.00520951 0.0086441 0.0141132 0.0224472 0.0138047 0.0165946 0.0195306 0.0224856 0.0491322 0.0590636 0.0695125 0.0800318 0.0137886 0.021532 0.0328762 0.0491045 0.0224687 0.0350867 0.0535722 0.0800164 0.0247932 0.0318256 0.039965 0.0491281 0.0725884 0.0931756 0.117006 0.143832 0.0247636 0.0362601 0.0518448 0.0726183 0.0490582 0.0718298 0.102705 0.143854 0.0725884 0.0931756 0.117006 0.143832 0.174814 0.22439 0.281783 0.346382 0.0725442 0.0994605 0.133261 0.174893 0.143713 0.197028 0.26399 0.346456 0.0491322 0.0590636 0.0695125 0.0800318 0.143842 0.172922 0.203511 0.234311 0.0490582 0.0718298 0.102705 0.143854 0.0799428 0.117047 0.167359 0.23441 0.143842 0.172922 0.203511 0.234311 0.346407 0.416443 0.490107 0.564287 0.143713 0.197028 0.26399 0.346456 0.234186 0.321058 0.430176 0.564551 0.00520015 0.00585487 0.0064581 0.00696334 0.0224946 0.0253357 0.0279409 0.0301352 0.00520951 0.0086441 0.0141132 0.0224472 0.00698259 0.0115867 0.0189172 0.0300885 0.0224946 0.0253357 0.0279409 0.0301352 0.0800599 0.0901757 0.0994455 0.107259 0.0224687 0.0350867 0.0535722 0.0800164 0.030117 0.0470303 0.0718082 0.107254 0.00696757 0.00735411 0.0075988 0.00767899 0.0301446 0.0318216 0.0328777 0.033229 0.00698259 0.0115867 0.0189172 0.0300885 0.0076991 0.0127752 0.0208579 0.0331748 0.0301446 0.0318216 0.0328777 0.033229 0.107289 0.113259 0.117017 0.11827 0.030117 0.0470303 0.0718082 0.107254 0.0332065 0.0518549 0.0791745 0.118257 0.0800599 0.0901757 0.0994455 0.107259 0.234387 0.26401 0.291145 0.314028 0.0799428 0.117047 0.167359 0.23441 0.107156 0.156889 0.224329 0.314202 0.234387 0.26401 0.291145 0.314028 0.564459 0.635809 0.701151 0.75627 0.234186 0.321058 0.430176 0.564551 0.313905 0.430345 0.57661 0.756723 0.107289 0.113259 0.117017 0.11827 0.314108 0.331591 0.34259 0.346261 0.107156 0.156889 0.224329 0.314202 0.118148 0.172984 0.247341 0.346435 0.314108 0.331591 0.34259 0.346261 0.75645 0.798561 0.825046 0.833892 0.313905 0.430345 0.57661 0.756723 0.346105 0.474492 0.63576 0.834352 0.174814 0.22439 0.281783 0.346382 0.346306 0.444513 0.558208 0.686175 0.174814 0.22439 0.281783 0.346382 0.346307 0.444513 0.558208 0.686175 0.346306 0.444513 0.558208 0.686175 0.564313 0.724338 0.909608 1.11813 0.346406 0.416443 0.490106 0.564288 0.686221 0.82497 0.970891 1.11785 0.346407 0.416443 0.490107 0.564287 0.686222 0.824969 0.970892 1.11785 0.346307 0.444513 0.558208 0.686175 0.564313 0.724338 0.909608 1.11813 0.686222 0.824969 0.970892 1.11785 1.1182 1.3443 1.58208 1.82155 0.686221 0.82497 0.970891 1.11785 1.1182 1.3443 1.58208 1.82156 0.564313 0.724338 0.909608 1.11813 0.756408 0.970903 1.21924 1.49874 0.564457 0.635809 0.70115 0.756271 1.11817 1.25953 1.38896 1.49817 0.756408 0.970903 1.21924 1.49874 0.834002 1.0705 1.34431 1.65249 0.75645 0.798561 0.825046 0.833892 1.49851 1.58194 1.6344 1.65193 1.1182 1.3443 1.58208 1.82155 1.49884 1.8019 2.12062 2.44162 1.11817 1.25953 1.38896 1.49817 1.82207 2.05243 2.26333 2.4413 1.49884 1.8019 2.12062 2.44162 1.65259 1.98675 2.33816 2.69209 1.49851 1.58194 1.6344 1.65193 2.44184 2.57779 2.66327 2.69185 0.564459 0.635809 0.701151 0.75627 1.11817 1.25953 1.38896 1.49817 0.564313 0.724338 0.909608 1.11813 0.756407 0.970903 1.21924 1.49874 1.11817 1.25953 1.38896 1.49817 1.82207 2.05243 2.26333 2.4413 1.1182 1.3443 1.58208 1.82156 1.49884 1.8019 2.12062 2.44162 0.75645 0.798561 0.825046 0.833892 1.49851 1.58194 1.6344 1.65193 0.756407 0.970903 1.21924 1.49874 0.834002 1.0705 1.34431 1.65249 1.49851 1.58194 1.6344 1.65193 2.44184 2.57779 2.66327 2.69185 1.49884 1.8019 2.12062 2.44162 1.65259 1.98675 2.33816 2.69209 1.82207 2.05243 2.26333 2.4413 2.4423 2.75108 3.03377 3.27232 1.82207 2.05243 2.26333 2.4413 2.44229 2.75108 3.03377 3.27232 2.4423 2.75108 3.03377 3.27232 2.69284 3.03329 3.34498 3.60801 2.44184 2.57779 2.66327 2.69185 3.27304 3.45528 3.56985 3.60816 2.44184 2.57779 2.66327 2.69185 3.27304 3.45528 3.56985 3.60816 2.44229 2.75108 3.03377 3.27232 2.69284 3.03329 3.34498 3.60801 3.27304 3.45528 3.56985 3.60816 3.6088 3.80973 3.93606 3.9783 3.27304 3.45528 3.56985 3.60816 3.6088 3.80973 3.93606 3.9783 0.00769902 0.0127752 0.0208578 0.0331749 0.00698323 0.0115864 0.0189174 0.0300878 0.00767906 0.00759877 0.00735413 0.0069675 0.0332291 0.0328776 0.0318216 0.0301446 0.00698323 0.0115864 0.0189174 0.0300878 0.00521057 0.00864367 0.0141136 0.0224461 0.00696347 0.00645804 0.00585493 0.00520002 0.0301353 0.0279408 0.0253358 0.0224945 0.0332064 0.051855 0.0791745 0.118257 0.0301169 0.0470304 0.0718081 0.107254 0.0332291 0.0328776 0.0318216 0.0301446 0.11827 0.117017 0.11326 0.107289 0.0301169 0.0470304 0.0718081 0.107254 0.0224686 0.0350868 0.0535722 0.0800165 0.0301353 0.0279408 0.0253358 0.0224945 0.10726 0.0994454 0.0901758 0.0800596 0.00521057 0.00864367 0.0141136 0.0224461 0.00319836 0.00530413 0.00866155 0.013774 0.0051962 0.00451403 0.003835 0.003191 0.0224857 0.0195306 0.0165946 0.0138046 0.00319836 0.00530413 0.00866155 0.013774 0.00161507 0.0026773 0.00437259 0.00695259 0.00319046 0.00259496 0.00206674 0.00160959 0.0138034 0.0112286 0.00894191 0.00696585 0.0224686 0.0350868 0.0535722 0.0800165 0.0137886 0.021532 0.0328762 0.0491045 0.0224857 0.0195306 0.0165946 0.0138046 0.0800319 0.0695124 0.0590637 0.049132 0.0137886 0.021532 0.0328762 0.0491045 0.00696051 0.0108694 0.016596 0.024788 0.0138034 0.0112286 0.00894191 0.00696585 0.0491281 0.039965 0.0318256 0.0247934 0.118148 0.172984 0.247341 0.346435 0.107154 0.15689 0.224328 0.314205 0.11827 0.117017 0.11326 0.107289 0.346261 0.34259 0.331591 0.314107 0.107154 0.15689 0.224328 0.314205 0.0799389 0.117048 0.167358 0.234414 0.10726 0.0994454 0.0901758 0.0800596 0.314029 0.291145 0.26401 0.234387 0.346105 0.474492 0.63576 0.834352 0.3139 0.430347 0.576608 0.756728 0.346261 0.34259 0.331591 0.314107 0.833892 0.825046 0.798561 0.756449 0.3139 0.430347 0.576608 0.756728 0.234178 0.321061 0.430173 0.564559 0.314029 0.291145 0.26401 0.234387 0.756271 0.70115 0.635809 0.564457 0.0799389 0.117048 0.167358 0.234414 0.0490545 0.0718313 0.102703 0.143858 0.0800319 0.0695124 0.0590637 0.049132 0.234312 0.203511 0.172922 0.143842 0.0490545 0.0718313 0.102703 0.143858 0.0247609 0.0362613 0.0518439 0.0726213 0.0491281 0.039965 0.0318256 0.0247934 0.143831 0.117006 0.0931756 0.0725888 0.234178 0.321061 0.430173 0.564559 0.143705 0.197031 0.263987 0.346464 0.234312 0.203511 0.172922 0.143842 0.564288 0.490107 0.416443 0.346407 0.143705 0.197031 0.263987 0.346464 0.0725389 0.0994631 0.133259 0.174899 0.143831 0.117006 0.0931756 0.0725888 0.346382 0.281783 0.224391 0.174815 0.00161507 0.0026773 0.00437259 0.00695259 0.000671007 0.00111167 0.00181594 0.00288689 0.00161139 0.00122701 0.000916321 0.000667489 0.00696996 0.00531011 0.0039638 0.00289044 0.000671007 0.00111167 0.00181594 0.00288689 0.00022977 0.000380343 0.000621474 0.000987726 0.000669187 0.000477442 0.000334319 0.000228165 0.00289434 0.00206632 0.00144606 0.000988377 0.00696051 0.0108694 0.016596 0.024788 0.00289051 0.00451373 0.00689182 0.0102937 0.00696996 0.00531011 0.0039638 0.00289044 0.0248063 0.0189001 0.0141074 0.0102887 0.00289051 0.00451373 0.00689182 0.0102937 0.000989127 0.00154457 0.00235835 0.00352245 0.00289434 0.00206632 0.00144606 0.000988377 0.010301 0.00735464 0.00514656 0.00351833 0.00022977 0.000380343 0.000621474 0.000987726 6.73364e-05 0.000111312 0.000181963 0.000289077 0.00022877 0.000153661 0.000101674 6.68738e-05 0.000989777 0.000664902 0.000439896 0.000289428 6.73364e-05 0.000111312 0.000181963 0.000289077 2.98571e-05 4.92678e-05 8.05869e-05 0.000127954 6.68638e-05 4.52686e-05 3.33806e-05 2.96547e-05 0.000289415 0.000195826 0.00014448 0.000128205 0.000989127 0.00154457 0.00235835 0.00352245 0.000289564 0.000452162 0.000690392 0.00103117 0.000989777 0.000664902 0.000439896 0.000289428 0.00352276 0.00236652 0.00156565 0.00103016 0.000289564 0.000452162 0.000690392 0.00103117 0.000128214 0.000200205 0.000305689 0.000456573 0.000289415 0.000195826 0.00014448 0.000128205 0.00103013 0.000696959 0.000514252 0.000456254 0.0247609 0.0362613 0.0518439 0.0726213 0.0102814 0.0150587 0.0215288 0.0301585 0.0248063 0.0189001 0.0141074 0.0102887 0.0726237 0.0553348 0.0413015 0.0301241 0.0102814 0.0150587 0.0215288 0.0301585 0.00351773 0.00515324 0.00736681 0.0103206 0.010301 0.00735464 0.00514656 0.00351833 0.0301573 0.0215326 0.0150672 0.0103016 0.0725389 0.0994631 0.133259 0.174899 0.0301211 0.0413051 0.0553377 0.0726327 0.0726237 0.0553348 0.0413015 0.0301241 0.174894 0.133262 0.0994636 0.07255 0.0301211 0.0413051 0.0553377 0.0726327 0.0103062 0.0141348 0.0189358 0.0248556 0.0301573 0.0215326 0.0150672 0.0103016 0.0726252 0.0518569 0.0362851 0.0248105 0.00351773 0.00515324 0.00736681 0.0103206 0.00102955 0.00150868 0.00215648 0.00302153 0.00352276 0.00236652 0.00156565 0.00103016 0.0103135 0.0069285 0.00458374 0.00301607 0.00102955 0.00150868 0.00215648 0.00302153 0.000455719 0.000668064 0.000954773 0.00133799 0.00103013 0.000696959 0.000514252 0.000456254 0.00301599 0.00204045 0.00150561 0.00133569 0.0103062 0.0141348 0.0189358 0.0248556 0.00301655 0.00413809 0.0055431 0.00727681 0.0103135 0.0069285 0.00458374 0.00301607 0.0248376 0.0166857 0.0110388 0.00726358 0.00301655 0.00413809 0.0055431 0.00727681 0.00133536 0.00183236 0.00245422 0.00322227 0.00301599 0.00204045 0.00150561 0.00133569 0.00726343 0.00491388 0.00362597 0.00321654 0.834002 1.0705 1.34431 1.65249 0.756405 0.970904 1.21924 1.49874 0.833892 0.825046 0.798561 0.756449 1.65193 1.6344 1.58194 1.49851 0.756405 0.970904 1.21924 1.49874 0.564309 0.72434 0.909607 1.11813 0.756271 0.70115 0.635809 0.564457 1.49817 1.38896 1.25953 1.11817 1.65259 1.98675 2.33816 2.69209 1.49884 1.8019 2.12062 2.44161 1.65193 1.6344 1.58194 1.49851 2.69185 2.66327 2.57779 2.44184 1.49884 1.8019 2.12062 2.44161 1.11821 1.3443 1.58208 1.82155 1.49817 1.38896 1.25953 1.11817 2.4413 2.26333 2.05243 1.82207 0.564309 0.72434 0.909607 1.11813 0.346302 0.444514 0.558206 0.68618 0.564288 0.490107 0.416443 0.346407 1.11785 0.970892 0.82497 0.686221 0.346302 0.444514 0.558206 0.68618 0.174812 0.224393 0.281782 0.346387 0.346382 0.281783 0.224391 0.174815 0.686175 0.558208 0.444513 0.346308 1.11821 1.3443 1.58208 1.82155 0.686229 0.824966 0.970895 1.11784 1.11785 0.970892 0.82497 0.686221 1.82156 1.58208 1.3443 1.1182 0.686229 0.824966 0.970895 1.11784 0.346414 0.416443 0.490111 0.564284 0.686175 0.558208 0.444513 0.346308 1.11813 0.909609 0.724339 0.564316 2.69284 3.03329 3.34498 3.60801 2.44231 2.75107 3.03377 3.27231 2.69185 2.66327 2.57779 2.44184 3.60816 3.56985 3.45528 3.27304 2.44231 2.75107 3.03377 3.27231 1.82208 2.05242 2.26334 2.44128 2.4413 2.26333 2.05243 1.82207 3.27232 3.03377 2.75108 2.44229 3.6088 3.80973 3.93606 3.9783 3.27304 3.45528 3.56986 3.60816 3.60816 3.56985 3.45528 3.27304 3.9783 3.93606 3.80973 3.6088 3.27304 3.45528 3.56986 3.60816 2.44185 2.57779 2.66328 2.69184 3.27232 3.03377 2.75108 2.44229 3.60801 3.34498 3.03329 2.69284 1.82208 2.05242 2.26334 2.44128 1.11819 1.25953 1.38897 1.49815 1.82156 1.58208 1.3443 1.1182 2.44162 2.12062 1.8019 1.49884 1.11819 1.25953 1.38897 1.49815 0.564473 0.635806 0.701158 0.756261 1.11813 0.909609 0.724339 0.564316 1.49874 1.21924 0.970904 0.756411 2.44185 2.57779 2.66328 2.69184 1.49852 1.58194 1.6344 1.65192 2.44162 2.12062 1.8019 1.49884 2.69209 2.33816 1.98675 1.6526 1.49852 1.58194 1.6344 1.65192 0.756459 0.798562 0.825052 0.833888 1.49874 1.21924 0.970904 0.756411 1.65249 1.34431 1.0705 0.834005 0.174812 0.224393 0.281782 0.346387 0.0725928 0.0931842 0.117015 0.143846 0.174894 0.133262 0.0994636 0.07255 0.346458 0.263992 0.197034 0.143725 0.0725928 0.0931842 0.117015 0.143846 0.0248402 0.0318874 0.0400418 0.0492238 0.0726252 0.0518569 0.0362851 0.0248105 0.143867 0.102729 0.0718793 0.0491512 0.346414 0.416443 0.490111 0.564284 0.143858 0.172935 0.20353 0.234328 0.346458 0.263992 0.197034 0.143725 0.564554 0.430181 0.321068 0.234205 0.143858 0.172935 0.20353 0.234328 0.0492285 0.0591771 0.0696473 0.0801848 0.143867 0.102729 0.0718793 0.0491512 0.234432 0.167399 0.117127 0.0800945 0.0248402 0.0318874 0.0400418 0.0492238 0.00727149 0.00933494 0.0117218 0.0144102 0.0248376 0.0166857 0.0110388 0.00726358 0.0492027 0.0330542 0.0218677 0.0143892 0.00727149 0.00933494 0.0117218 0.0144102 0.00321945 0.00413334 0.00519003 0.00638065 0.00726343 0.00491388 0.00362597 0.00321654 0.0143889 0.00973424 0.00718309 0.00637172 0.0492285 0.0591771 0.0696473 0.0801848 0.0144118 0.0173234 0.020389 0.023473 0.0492027 0.0330542 0.0218677 0.0143892 0.0801764 0.0538623 0.0356336 0.0234475 0.0144118 0.0173234 0.020389 0.023473 0.00638148 0.00767023 0.00902783 0.0103929 0.0143889 0.00973424 0.00718309 0.00637172 0.0234471 0.015862 0.011705 0.0103826 0.564473 0.635806 0.701158 0.756261 0.234414 0.264029 0.291173 0.314047 0.564554 0.430181 0.321068 0.234205 0.756726 0.576616 0.430358 0.313931 0.234414 0.264029 0.291173 0.314047 0.0802178 0.0903484 0.0996389 0.107463 0.234432 0.167399 0.117127 0.0800945 0.314231 0.224382 0.156997 0.10736 0.756459 0.798562 0.825052 0.833888 0.314138 0.331618 0.342621 0.346286 0.756726 0.576616 0.430358 0.313931 0.834355 0.635766 0.474507 0.346134 0.314138 0.331618 0.342621 0.346286 0.107498 0.113477 0.117244 0.118496 0.314231 0.224382 0.156997 0.10736 0.346467 0.247399 0.173103 0.118373 0.0802178 0.0903484 0.0996389 0.107463 0.0234844 0.0264483 0.0291691 0.0314578 0.0801764 0.0538623 0.0356336 0.0234475 0.107468 0.0721972 0.0477633 0.0314291 0.0234844 0.0264483 0.0291691 0.0314578 0.0103989 0.0117103 0.0129156 0.013928 0.0234471 0.015862 0.011705 0.0103826 0.0314286 0.0212614 0.0156895 0.0139168 0.107498 0.113477 0.117244 0.118496 0.0314699 0.0332194 0.0343225 0.0346882 0.107468 0.0721972 0.0477633 0.0314291 0.118493 0.0796034 0.052663 0.0346532 0.0314699 0.0332194 0.0343225 0.0346882 0.0139344 0.0147085 0.0151973 0.0153587 0.0314286 0.0212614 0.0156895 0.0139168 0.0346526 0.0234425 0.017299 0.0153445 0.00767898 0.00759881 0.0073541 0.00696758 0.033229 0.0328777 0.0318216 0.0301447 0.0076991 0.0127752 0.0208579 0.0331748 0.00698344 0.0115863 0.0189175 0.0300876 0.033229 0.0328777 0.0318216 0.0301447 0.11827 0.117017 0.113259 0.107289 0.0332065 0.0518549 0.0791745 0.118257 0.030117 0.0470303 0.0718082 0.107254 0.00696336 0.00645809 0.00585488