# vtk DataFile Version 3.0
#This file was generated by the deal.II library on 2020/8/22 at 21:53:35
ASCII
DATASET UNSTRUCTURED_GRID

POINTS 2908 double
0.5 0.5 0
1 0.5 0
0.5 1 0
1 1 0
0 0 0
0.25 0 0
0 0.25 0
0.25 0.25 0
0.25 0 0
0.5 0 0
0.25 0.25 0
0.5 0.25 0
0 0.25 0
0.25 0.25 0
0 0.5 0
0.25 0.5 0
0.25 0.25 0
0.5 0.25 0
0.25 0.5 0
0.5 0.5 0
0.5 0 0
0.75 0 0
0.5 0.25 0
0.75 0.25 0
0.75 0 0
1 0 0
0.75 0.25 0
1 0.25 0
0.5 0.25 0
0.75 0.25 0
0.5 0.5 0
0.75 0.5 0
0.75 0.25 0
1 0.25 0
0.75 0.5 0
1 0.5 0
0 0.5 0
0.25 0.5 0
0 0.75 0
0.25 0.75 0
0.25 0.5 0
0.5 0.5 0
0.25 0.75 0
0.5 0.75 0
0 0.75 0
0.25 0.75 0
0 1 0
0.25 1 0
0.25 0.75 0
0.5 0.75 0
0.25 1 0
0.5 1 0
-1 -0.5 0
-0.875 -0.5 0
-1 -0.375 0
-0.875 -0.375 0
-1 -0.375 0
-0.875 -0.375 0
-1 -0.25 0
-0.875 -0.25 0
-0.125 -0.5 0
0 -0.5 0
-0.125 -0.375 0
0 -0.375 0
-0.125 -0.375 0
0 -0.375 0
-0.125 -0.25 0
0 -0.25 0
-0.5 0 0
-0.375 0 0
-0.5 0.125 0
-0.375 0.125 0
-0.375 0 0
-0.25 0 0
-0.375 0.125 0
-0.25 0.125 0
-0.75 -0.125 0
-0.625 -0.125 0
-0.75 0 0
-0.625 0 0
-0.625 -0.125 0
-0.5 -0.125 0
-0.625 0 0
-0.5 0 0
-0.5 -0.125 0
-0.375 -0.125 0
-0.5 0 0
-0.375 0 0
-0.375 -0.125 0
-0.25 -0.125 0
-0.375 0 0
-0.25 0 0
-1 0.25 0
-0.875 0.25 0
-1 0.375 0
-0.875 0.375 0
-1 0.375 0
-0.875 0.375 0
-1 0.5 0
-0.875 0.5 0
-0.125 0.25 0
0 0.25 0
-0.125 0.375 0
0 0.375 0
-0.125 0.375 0
0 0.375 0
-0.125 0.5 0
0 0.5 0
-0.75 -1 0
-0.625 -1 0
-0.75 -0.875 0
-0.625 -0.875 0
-0.625 -1 0
-0.5 -1 0
-0.625 -0.875 0
-0.5 -0.875 0
-0.5 -1 0
-0.375 -1 0
-0.5 -0.875 0
-0.375 -0.875 0
-0.375 -1 0
-0.25 -1 0
-0.375 -0.875 0
-0.25 -0.875 0
0.25 -1 0
0.375 -1 0
0.25 -0.875 0
0.375 -0.875 0
0.375 -1 0
0.5 -1 0
0.375 -0.875 0
0.5 -0.875 0
0 -0.75 0
0.125 -0.75 0
0 -0.625 0
0.125 -0.625 0
0 -0.625 0
0.125 -0.625 0
0 -0.5 0
0.125 -0.5 0
0.875 -0.75 0
1 -0.75 0
0.875 -0.625 0
1 -0.625 0
0.875 -0.625 0
1 -0.625 0
0.875 -0.5 0
1 -0.5 0
0 -0.5 0
0.125 -0.5 0
0 -0.375 0
0.125 -0.375 0
0 -0.375 0
0.125 -0.375 0
0 -0.25 0
0.125 -0.25 0
0.25 -0.125 0
0.375 -0.125 0
0.25 0 0
0.375 0 0
0.375 -0.125 0
0.5 -0.125 0
0.375 0 0
0.5 0 0
0.875 -0.5 0
1 -0.5 0
0.875 -0.375 0
1 -0.375 0
0.875 -0.375 0
1 -0.375 0
0.875 -0.25 0
1 -0.25 0
0.5 -0.125 0
0.625 -0.125 0
0.5 0 0
0.625 0 0
0.625 -0.125 0
0.75 -0.125 0
0.625 0 0
0.75 0 0
-1 0.5 0
-0.875 0.5 0
-1 0.625 0
-0.875 0.625 0
-1 0.625 0
-0.875 0.625 0
-1 0.75 0
-0.875 0.75 0
-0.75 0.875 0
-0.625 0.875 0
-0.75 1 0
-0.625 1 0
-0.625 0.875 0
-0.5 0.875 0
-0.625 1 0
-0.5 1 0
-0.125 0.5 0
0 0.5 0
-0.125 0.625 0
0 0.625 0
-0.125 0.625 0
0 0.625 0
-0.125 0.75 0
0 0.75 0
-0.5 0.875 0
-0.375 0.875 0
-0.5 1 0
-0.375 1 0
-0.375 0.875 0
-0.25 0.875 0
-0.375 1 0
-0.25 1 0
-0.75 0 0
-0.625 0 0
-0.75 0.125 0
-0.625 0.125 0
-0.625 0 0
-0.5 0 0
-0.625 0.125 0
-0.5 0.125 0
-1 -0.75 0
-0.875 -0.75 0
-1 -0.625 0
-0.875 -0.625 0
-1 -0.625 0
-0.875 -0.625 0
-1 -0.5 0
-0.875 -0.5 0
-0.125 -0.75 0
0 -0.75 0
-0.125 -0.625 0
0 -0.625 0
-0.125 -0.625 0
0 -0.625 0
-0.125 -0.5 0
0 -0.5 0
0.5 -1 0
0.625 -1 0
0.5 -0.875 0
0.625 -0.875 0
0.625 -1 0
0.75 -1 0
0.625 -0.875 0
0.75 -0.875 0
-1 -0.25 0
-0.875 -0.25 0
-1 -0.125 0
-0.875 -0.125 0
-0.875 -0.25 0
-0.75 -0.25 0
-0.875 -0.125 0
-0.75 -0.125 0
-1 -0.125 0
-0.875 -0.125 0
-1 0 0
-0.875 0 0
-0.875 -0.125 0
-0.75 -0.125 0
-0.875 0 0
-0.75 0 0
-0.25 -0.25 0
-0.125 -0.25 0
-0.25 -0.125 0
-0.125 -0.125 0
-0.125 -0.25 0
0 -0.25 0
-0.125 -0.125 0
0 -0.125 0
-0.25 -0.125 0
-0.125 -0.125 0
-0.25 0 0
-0.125 0 0
-0.125 -0.125 0
0 -0.125 0
-0.125 0 0
0 0 0
-1 0 0
-0.875 0 0
-1 0.125 0
-0.875 0.125 0
-0.875 0 0
-0.75 0 0
-0.875 0.125 0
-0.75 0.125 0
-1 0.125 0
-0.875 0.125 0
-1 0.25 0
-0.875 0.25 0
-0.875 0.125 0
-0.75 0.125 0
-0.875 0.25 0
-0.75 0.25 0
-0.25 0 0
-0.125 0 0
-0.25 0.125 0
-0.125 0.125 0
-0.125 0 0
0 0 0
-0.125 0.125 0
0 0.125 0
-0.25 0.125 0
-0.125 0.125 0
-0.25 0.25 0
-0.125 0.25 0
-0.125 0.125 0
0 0.125 0
-0.125 0.25 0
0 0.25 0
-1 -1 0
-0.875 -1 0
-1 -0.875 0
-0.875 -0.875 0
-0.875 -1 0
-0.75 -1 0
-0.875 -0.875 0
-0.75 -0.875 0
-1 -0.875 0
-0.875 -0.875 0
-1 -0.75 0
-0.875 -0.75 0
-0.875 -0.875 0
-0.75 -0.875 0
-0.875 -0.75 0
-0.75 -0.75 0
-0.25 -1 0
-0.125 -1 0
-0.25 -0.875 0
-0.125 -0.875 0
-0.125 -1 0
0 -1 0
-0.125 -0.875 0
0 -0.875 0
-0.25 -0.875 0
-0.125 -0.875 0
-0.25 -0.75 0
-0.125 -0.75 0
-0.125 -0.875 0
0 -0.875 0
-0.125 -0.75 0
0 -0.75 0
0 -1 0
0.125 -1 0
0 -0.875 0
0.125 -0.875 0
0.125 -1 0
0.25 -1 0
0.125 -0.875 0
0.25 -0.875 0
0 -0.875 0
0.125 -0.875 0
0 -0.75 0
0.125 -0.75 0
0.125 -0.875 0
0.25 -0.875 0
0.125 -0.75 0
0.25 -0.75 0
0.75 -1 0
0.875 -1 0
0.75 -0.875 0
0.875 -0.875 0
0.875 -1 0
1 -1 0
0.875 -0.875 0
1 -0.875 0
0.75 -0.875 0
0.875 -0.875 0
0.75 -0.75 0
0.875 -0.75 0
0.875 -0.875 0
1 -0.875 0
0.875 -0.75 0
1 -0.75 0
0 -0.25 0
0.125 -0.25 0
0 -0.125 0
0.125 -0.125 0
0.125 -0.25 0
0.25 -0.25 0
0.125 -0.125 0
0.25 -0.125 0
0 -0.125 0
0.125 -0.125 0
0 0 0
0.125 0 0
0.125 -0.125 0
0.25 -0.125 0
0.125 0 0
0.25 0 0
0.75 -0.25 0
0.875 -0.25 0
0.75 -0.125 0
0.875 -0.125 0
0.875 -0.25 0
1 -0.25 0
0.875 -0.125 0
1 -0.125 0
0.75 -0.125 0
0.875 -0.125 0
0.75 0 0
0.875 0 0
0.875 -0.125 0
1 -0.125 0
0.875 0 0
1 0 0
-1 0.75 0
-0.875 0.75 0
-1 0.875 0
-0.875 0.875 0
-0.875 0.75 0
-0.75 0.75 0
-0.875 0.875 0
-0.75 0.875 0
-1 0.875 0
-0.875 0.875 0
-1 1 0
-0.875 1 0
-0.875 0.875 0
-0.75 0.875 0
-0.875 1 0
-0.75 1 0
-0.25 0.75 0
-0.125 0.75 0
-0.25 0.875 0
-0.125 0.875 0
-0.125 0.75 0
0 0.75 0
-0.125 0.875 0
0 0.875 0
-0.25 0.875 0
-0.125 0.875 0
-0.25 1 0
-0.125 1 0
-0.125 0.875 0
0 0.875 0
-0.125 1 0
0 1 0
-0.875 -0.5 0
-0.8125 -0.5 0
-0.875 -0.4375 0
-0.8125 -0.4375 0
-0.8125 -0.5 0
-0.75 -0.5 0
-0.8125 -0.4375 0
-0.75 -0.4375 0
-0.875 -0.4375 0
-0.8125 -0.4375 0
-0.875 -0.375 0
-0.8125 -0.375 0
-0.8125 -0.4375 0
-0.75 -0.4375 0
-0.8125 -0.375 0
-0.75 -0.375 0
-0.75 -0.4375 0
-0.6875 -0.4375 0
-0.75 -0.375 0
-0.6875 -0.375 0
-0.6875 -0.4375 0
-0.625 -0.4375 0
-0.6875 -0.375 0
-0.625 -0.375 0
-0.625 -0.375 0
-0.5625 -0.375 0
-0.625 -0.3125 0
-0.5625 -0.3125 0
-0.625 -0.3125 0
-0.5625 -0.3125 0
-0.625 -0.25 0
-0.5625 -0.25 0
-0.5625 -0.3125 0
-0.5 -0.3125 0
-0.5625 -0.25 0
-0.5 -0.25 0
-0.375 -0.4375 0
-0.3125 -0.4375 0
-0.375 -0.375 0
-0.3125 -0.375 0
-0.3125 -0.4375 0
-0.25 -0.4375 0
-0.3125 -0.375 0
-0.25 -0.375 0
-0.4375 -0.375 0
-0.375 -0.375 0
-0.4375 -0.3125 0
-0.375 -0.3125 0
-0.5 -0.3125 0
-0.4375 -0.3125 0
-0.5 -0.25 0
-0.4375 -0.25 0
-0.4375 -0.3125 0
-0.375 -0.3125 0
-0.4375 -0.25 0
-0.375 -0.25 0
-0.25 -0.5 0
-0.1875 -0.5 0
-0.25 -0.4375 0
-0.1875 -0.4375 0
-0.1875 -0.5 0
-0.125 -0.5 0
-0.1875 -0.4375 0
-0.125 -0.4375 0
-0.25 -0.4375 0
-0.1875 -0.4375 0
-0.25 -0.375 0
-0.1875 -0.375 0
-0.1875 -0.4375 0
-0.125 -0.4375 0
-0.1875 -0.375 0
-0.125 -0.375 0
-0.625 0.25 0
-0.5625 0.25 0
-0.625 0.3125 0
-0.5625 0.3125 0
-0.625 0.3125 0
-0.5625 0.3125 0
-0.625 0.375 0
-0.5625 0.375 0
-0.75 0.375 0
-0.6875 0.375 0
-0.75 0.4375 0
-0.6875 0.4375 0
-0.6875 0.375 0
-0.625 0.375 0
-0.6875 0.4375 0
-0.625 0.4375 0
-0.75 0.4375 0
-0.6875 0.4375 0
-0.75 0.5 0
-0.6875 0.5 0
-0.5 0.125 0
-0.4375 0.125 0
-0.5 0.1875 0
-0.4375 0.1875 0
-0.4375 0.125 0
-0.375 0.125 0
-0.4375 0.1875 0
-0.375 0.1875 0
-0.5 0.1875 0
-0.4375 0.1875 0
-0.5 0.25 0
-0.4375 0.25 0
-0.4375 0.1875 0
-0.375 0.1875 0
-0.4375 0.25 0
-0.375 0.25 0
-0.4375 0.25 0
-0.375 0.25 0
-0.4375 0.3125 0
-0.375 0.3125 0
-0.4375 0.3125 0
-0.375 0.3125 0
-0.4375 0.375 0
-0.375 0.375 0
-0.375 0.375 0
-0.3125 0.375 0
-0.375 0.4375 0
-0.3125 0.4375 0
-0.3125 0.375 0
-0.25 0.375 0
-0.3125 0.4375 0
-0.25 0.4375 0
-0.3125 0.4375 0
-0.25 0.4375 0
-0.3125 0.5 0
-0.25 0.5 0
-0.625 -0.75 0
-0.5625 -0.75 0
-0.625 -0.6875 0
-0.5625 -0.6875 0
-0.5625 -0.75 0
-0.5 -0.75 0
-0.5625 -0.6875 0
-0.5 -0.6875 0
-0.625 -0.6875 0
-0.5625 -0.6875 0
-0.625 -0.625 0
-0.5625 -0.625 0
-0.75 -0.625 0
-0.6875 -0.625 0
-0.75 -0.5625 0
-0.6875 -0.5625 0
-0.6875 -0.625 0
-0.625 -0.625 0
-0.6875 -0.5625 0
-0.625 -0.5625 0
-0.6875 -0.5625 0
-0.625 -0.5625 0
-0.6875 -0.5 0
-0.625 -0.5 0
-0.5 -0.75 0
-0.4375 -0.75 0
-0.5 -0.6875 0
-0.4375 -0.6875 0
-0.4375 -0.75 0
-0.375 -0.75 0
-0.4375 -0.6875 0
-0.375 -0.6875 0
-0.4375 -0.6875 0
-0.375 -0.6875 0
-0.4375 -0.625 0
-0.375 -0.625 0
-0.375 -0.625 0
-0.3125 -0.625 0
-0.375 -0.5625 0
-0.3125 -0.5625 0
-0.3125 -0.625 0
-0.25 -0.625 0
-0.3125 -0.5625 0
-0.25 -0.5625 0
0.375 -0.75 0
0.4375 -0.75 0
0.375 -0.6875 0
0.4375 -0.6875 0
0.375 -0.6875 0
0.4375 -0.6875 0
0.375 -0.625 0
0.4375 -0.625 0
0.25 -0.625 0
0.3125 -0.625 0
0.25 -0.5625 0
0.3125 -0.5625 0
0.3125 -0.625 0
0.375 -0.625 0
0.3125 -0.5625 0
0.375 -0.5625 0
0.25 -0.5625 0
0.3125 -0.5625 0
0.25 -0.5 0
0.3125 -0.5 0
0.5625 -0.75 0
0.625 -0.75 0
0.5625 -0.6875 0
0.625 -0.6875 0
0.5 -0.6875 0
0.5625 -0.6875 0
0.5 -0.625 0
0.5625 -0.625 0
0.5625 -0.6875 0
0.625 -0.6875 0
0.5625 -0.625 0
0.625 -0.625 0
0.625 -0.625 0
0.6875 -0.625 0
0.625 -0.5625 0
0.6875 -0.5625 0
0.6875 -0.625 0
0.75 -0.625 0
0.6875 -0.5625 0
0.75 -0.5625 0
0.6875 -0.5625 0
0.75 -0.5625 0
0.6875 -0.5 0
0.75 -0.5 0
0.25 -0.5 0
0.3125 -0.5 0
0.25 -0.4375 0
0.3125 -0.4375 0
0.25 -0.4375 0
0.3125 -0.4375 0
0.25 -0.375 0
0.3125 -0.375 0
0.3125 -0.4375 0
0.375 -0.4375 0
0.3125 -0.375 0
0.375 -0.375 0
0.375 -0.375 0
0.4375 -0.375 0
0.375 -0.3125 0
0.4375 -0.3125 0
0.375 -0.3125 0
0.4375 -0.3125 0
0.375 -0.25 0
0.4375 -0.25 0
0.4375 -0.3125 0
0.5 -0.3125 0
0.4375 -0.25 0
0.5 -0.25 0
0.6875 -0.5 0
0.75 -0.5 0
0.6875 -0.4375 0
0.75 -0.4375 0
0.625 -0.4375 0
0.6875 -0.4375 0
0.625 -0.375 0
0.6875 -0.375 0
0.6875 -0.4375 0
0.75 -0.4375 0
0.6875 -0.375 0
0.75 -0.375 0
0.5625 -0.375 0
0.625 -0.375 0
0.5625 -0.3125 0
0.625 -0.3125 0
0.5 -0.3125 0
0.5625 -0.3125 0
0.5 -0.25 0
0.5625 -0.25 0
0.5625 -0.3125 0
0.625 -0.3125 0
0.5625 -0.25 0
0.625 -0.25 0
-0.75 0.5 0
-0.6875 0.5 0
-0.75 0.5625 0
-0.6875 0.5625 0
-0.75 0.5625 0
-0.6875 0.5625 0
-0.75 0.625 0
-0.6875 0.625 0
-0.6875 0.5625 0
-0.625 0.5625 0
-0.6875 0.625 0
-0.625 0.625 0
-0.625 0.625 0
-0.5625 0.625 0
-0.625 0.6875 0
-0.5625 0.6875 0
-0.625 0.6875 0
-0.5625 0.6875 0
-0.625 0.75 0
-0.5625 0.75 0
-0.5625 0.6875 0
[...]
POINT_DATA 2908
VECTORS gradient double
-6.00459e-05 -0.000180045 0
-8.59556e-05 3.47126e-05 0
7.73602e-05 -8.53126e-06 0
-1.29314e-05 -9.0324e-06 0
0.000731606 0.00110383 0
0.0111663 0.0161472 0
0.0155318 0.0103699 0
-0.0135463 -0.0137718 0
0.0127411 0.0260617 0
0.00337627 0.116696 0
-0.00949531 -0.00374551 0
-0.00201927 -0.0345063 0
0.0255502 0.0115065 0
-0.00345336 -0.00955711 0
0.116674 0.00248888 0
-0.0332578 -0.0017568 0
0.0053562 0.00510606 0
0.00217096 -0.00347359 0
-0.00296355 0.00204401 0
-0.000128553 -0.000206683 0
-0.00202862 0.117054 0
-0.00779795 0.0269088 0
0.00494575 -0.0347617 0
0.0138049 -0.00649175 0
-0.00524765 0.0194653 0
0.00284944 -0.00157114 0
0.0109042 -0.00421333 0
0.00425969 0.000997994 0
0.000165203 -0.00362586 0
-0.00220041 0.00142327 0
-0.000376826 -0.00045314 0
-0.000327806 0.000482845 0
-0.00110685 0.00260885 0
0.00169681 0.000575395 0
-0.000261435 4.60743e-05 0
0.000173042 -0.000285174 0
0.117143 -0.0022205 0
-0.033494 0.00511897 0
0.026078 -0.00633246 0
-0.00600432 0.0135797 0
-0.0031479 3.7854e-05 0
-0.000502104 -0.000463498 0
0.0014483 -0.00220413 0
0.000812249 -0.000288977 0
0.0180298 -0.00418591 0
-0.00377664 0.0107113 0
-0.00131057 0.00311531 0
0.00107105 0.00417677 0
0.00263292 -0.00101639 0
0.000403388 -0.000226476 0
0.000624321 0.00207712 0
-0.00041089 0.000236348 0
-0.0214807 0.00483936 0
-1.91306 0.0473955 0
0.00816089 0.111992 0
-1.30849 0.25225 0
0.00641086 0.117261 0
-1.19597 0.243883 0
0.0238665 0.118123 0
-0.349911 0.144655 0
1.92603 0.0407277 0
-0.140976 0.0103095 0
1.32502 0.266446 0
-0.11615 0.122655 0
1.20434 0.259722 0
-0.10496 0.12575 0
0.355826 0.159159 0
-0.0503326 0.117845 0
0.00983297 0.137615 0
0.12204 0.112057 0
0.0396174 -1.92942 0
0.265119 -1.32911 0
0.125103 0.100912 0
0.117272 0.0456954 0
0.258373 -1.2085 0
0.157809 -0.360742 0
-0.166121 0.351848 0
-0.259681 1.2009 0
-0.116076 -0.0480883 0
-0.132585 -0.101676 0
-0.264931 1.31914 0
-0.0308727 1.92868 0
-0.131092 -0.11267 0
-0.0246697 -0.137889 0
0.0395144 1.92884 0
0.266383 1.32363 0
0.0106724 -0.137617 0
0.122959 -0.114245 0
0.259339 1.20463 0
0.159019 0.356398 0
0.12579 -0.103073 0
0.117027 -0.0493374 0
0.0207532 -0.116244 0
-0.353767 -0.14874 0
0.00238357 -0.12345 0
-1.19719 -0.242815 0
0.00731642 -0.11924 0
-1.30955 -0.249272 0
-0.0183992 -0.016837 0
-1.91505 -0.0385008 0
0.345287 -0.151794 0
-0.0403163 -0.125701 0
1.18538 -0.253773 0
0.0170197 -0.145401 0
1.29804 -0.261017 0
-0.062313 -0.140951 0
1.90219 -0.0382405 0
0.0111528 -0.00393284 0
-0.116004 0.024488 0
-0.123757 0.00614227 0
-0.150523 -0.343512 0
-0.242312 -1.19022 0
-0.120251 0.0121346 0
-0.0186886 -0.0179747 0
-0.248345 -1.30203 0
-0.0345979 -1.9138 0
0.0155876 -0.0181117 0
0.117601 0.00746219 0
0.0370038 -1.91421 0
0.247474 -1.30888 0
0.12177 0.00252832 0
0.114296 0.0207961 0
0.240978 -1.19655 0
0.146667 -0.353292 0
-0.119765 0.0240867 0
-0.118398 0.00679443 0
-0.146273 -0.349936 0
-0.245038 -1.19603 0
-0.113057 0.00854347 0
-0.00510794 -0.0209465 0
-0.25334 -1.30862 0
-0.0478353 -1.91334 0
0.0456972 -0.115793 0
-0.354038 -0.166138 0
0.0988931 -0.132224 0
-1.20347 -0.259805 0
0.109887 -0.130725 0
-1.32171 -0.26507 0
0.134521 -0.0242219 0
-1.93186 -0.0311086 0
0.344211 -0.156308 0
-0.0289012 -0.123963 0
1.18523 -0.252649 0
0.0203738 -0.151346 0
1.29669 -0.257854 0
-0.0573917 -0.145765 0
1.90726 -0.0337063 0
0.0144281 -0.0144071 0
0.134266 0.0111293 0
-1.93207 0.039265 0
0.110158 0.123543 0
-1.32771 0.266236 0
0.0990338 0.126397 0
-1.20884 0.259249 0
0.0447116 0.117916 0
-0.361141 0.159239 0
-0.151124 0.346059 0
-0.253546 1.1871 0
-0.12501 -0.0396456 0
-0.144124 0.0172398 0
-0.260918 1.29939 0
-0.0390577 1.90429 0
-0.139465 -0.0609954 0
-0.00274395 0.0121323 0
1.90761 0.035592 0
0.013664 0.0101179 0
1.30464 0.257366 0
-0.0570435 0.143593 0
1.19262 0.251735 0
0.0203525 0.149801 0
0.355756 0.153533 0
-0.0278358 0.125824 0
0.0258447 1.90379 0
0.256479 1.29689 0
0.0200117 0.0118567 0
0.148981 -0.0568296 0
0.251709 1.18559 0
0.158727 0.344344 0
0.151536 0.0209079 0
0.124199 -0.0365751 0
-0.0182655 0.0174796 0
-1.91468 0.0331307 0
0.0116708 0.119729 0
-1.30332 0.247276 0
0.00569006 0.123307 0
-1.19179 0.241287 0
0.023874 0.117219 0
-0.346118 0.150728 0
-0.159975 0.347251 0
-0.250319 1.18647 0
-0.120845 -0.0308321 0
-0.153585 0.0211306 0
-0.25361 1.29802 0
-0.023444 1.90603 0
-0.149482 -0.0573761 0
-0.0240726 0.0146923 0
1.90197 0.0267225 0
0.0109786 0.0197177 0
1.29544 0.257421 0
-0.0594914 0.149733 0
1.18383 0.252218 0
0.0198596 0.152372 0
0.344166 0.159426 0
-0.0388413 0.125732 0
0.0459003 1.9064 0
0.262573 1.3016 0
0.00105084 0.0153876 0
0.13921 -0.0588285 0
0.254685 1.18931 0
0.150664 0.352154 0
0.14678 0.0198447 0
0.129308 -0.027742 0
-0.115742 0.0447252 0
-0.132056 0.0988999 0
-0.165531 -0.354513 0
-0.259044 -1.20391 0
-0.130581 0.110176 0
-0.0250828 0.138074 0
-0.263416 -1.32434 0
-0.0298523 -1.92889 0
0.0177557 -0.111611 0
-0.349972 -0.154118 0
0.000129224 -0.126815 0
-1.19523 -0.239524 0
0.000770661 -0.124407 0
-1.30732 -0.243012 0
-0.0207917 -0.0300703 0
-1.91318 -0.0236291 0
0.352062 -0.164935 0
-0.047129 -0.115461 0
1.20106 -0.258215 0
-0.101695 -0.131695 0
1.32149 -0.262565 0
-0.112971 -0.130215 0
1.9255 -0.0287692 0
-0.141448 -0.0246171 0
0.0299099 -0.0202601 0
0.125525 0.00136882 0
0.0232764 -1.91356 0
0.243626 -1.30813 0
0.128111 0.00072317 0
0.115 0.018203 0
0.240278 -1.19624 0
0.156433 -0.351925 0
0.02116 0.0972547 0
-0.25981 0.0989344 0
0.0114537 0.0376331 0
-0.0526654 -0.0139439 0
-0.338852 0.0416705 0
-1.82607 1.81955 0
-0.0836527 0.0823363 0
-0.0450856 0.338004 0
0.0109752 0.0335933 0
0.00130328 -0.00913034 0
0.00540456 -0.00327968 0
-0.0275023 -0.0150208 0
0.00194027 0.050541 0
-0.121112 0.264117 0
-0.0307145 -0.0105764 0
-0.0940048 -0.0466218 0
1.8273 1.82808 0
0.33191 0.041896 0
0.0408455 0.333027 0
0.0824398 0.0820154 0
0.263642 0.114421 0
-0.0469187 0.0962704 0
0.0515944 -0.0068005 0
-0.0125884 0.0333768 0
0.11428 0.265211 0
-0.00728862 0.05155 0
0.095438 -0.0466368 0
0.0325145 -0.0117947 0
-0.0038084 -0.00328573 0
-0.0132121 0.0303865 0
0.0294952 -0.0129317 0
-0.0058327 -0.00526958 0
0.00529952 0.00406851 0
-0.0273551 0.00849585 0
0.00914595 -0.0312402 0
-0.000500097 0.0035146 0
-0.0304029 0.00849728 0
-0.0937011 0.0400541 0
0.00102312 -0.0526656 0
-0.121138 -0.265615 0
0.00909426 -0.0352275 0
-0.0520325 0.00737868 0
0.0174219 -0.0953416 0
-0.264456 -0.103912 0
-0.0820169 -0.0860122 0
-0.0476698 -0.339348 0
-0.339253 -0.0439053 0
-1.82612 -1.82313 0
0.0956024 0.0426318 0
0.0352592 0.00840937 0
0.113042 -0.268455 0
-0.00848553 -0.0575296 0
0.0319481 0.010404 0
0.0113969 -0.00037543 0
-0.00572342 0.00388803 0
-0.0294057 -0.0345148 0
0.0409653 -0.336772 0
0.0845597 -0.0887229 0
1.82438 -1.83307 0
0.330301 -0.049599 0
0.0521416 0.0078563 0
0.0150755 -0.038039 0
0.255878 -0.111086 0
-0.0313977 -0.113759 0
0.0051319 0.00419492 0
-0.0318653 0.0107695 0
0.00748296 -0.0258258 0
0.00391948 0.00429844 0
-0.0357505 0.00920736 0
-0.0955025 0.020943 0
0.00666763 -0.0508698 0
-0.105656 -0.25611 0
0.00944239 -0.0299442 0
-0.0509859 0.005302 0
0.0146347 -0.0892889 0
-0.264953 -0.108555 0
-0.0818169 -0.084658 0
-0.0475963 -0.340825 0
-0.345119 -0.0447551 0
-1.81608 -1.81844 0
0.093364 0.0174654 0
0.0330996 0.00908871 0
0.101813 -0.263996 0
-0.00958818 -0.0517373 0
0.0291001 0.0091406 0
-0.00622553 0.00530813 0
-0.00573088 -0.000204444 0
-0.0106884 -0.0271913 0
0.0418073 -0.338749 0
0.0837998 -0.0816951 0
1.82077 -1.82524 0
0.336899 -0.0470804 0
0.0504461 0.00134579 0
-0.0106892 -0.0302289 0
0.263159 -0.120566 0
-0.0424577 -0.0934271 0
0.00112836 0.00541335 0
-0.0356112 0.0110628 0
0.0128392 -0.0273387 0
0.00711767 0.00137094 0
-0.0396254 0.011541 0
-0.0989452 0.0213805 0
0.0119616 -0.0526002 0
-0.100604 -0.259806 0
0.00839562 -0.0305407 0
-0.0525501 0.00200023 0
0.0442316 -0.0937283 0
-0.266319 -0.121118 0
-0.0843139 -0.0835943 0
-0.0433234 -0.338875 0
-0.340169 -0.0451121 0
-1.82138 -1.82633 0
0.0929527 0.015052 0
0.0370881 0.00924234 0
0.111077 -0.266999 0
-0.000765852 -0.0549049 0
0.0332727 0.00673662 0
0.0127384 0.0014137 0
0.00120938 0.00155297 0
-0.0172631 -0.0323263 0
0.0476033 -0.347423 0
0.0910905 -0.0862754 0
1.81821 -1.81987 0
0.342049 -0.0552606 0
0.0570963 0.00364253 0
0.0188463 -0.0375684 0
0.257725 -0.113423 0
-0.0229512 -0.110853 0
0.0423568 0.0962419 0
-0.269784 0.114472 0
0.00763262 0.0357633 0
-0.0571078 -0.00749019 0
-0.337642 0.0415511 0
-1.83303 1.82542 0
-0.0879136 0.0865286 0
-0.0499272 0.330778 0
0.0101571 0.0324041 0
0.00374634 -0.00480591 0
-0.000894399 0.0115964 0
-0.0347697 -0.0284191 0
0.00775044 0.0537501 0
-0.110495 0.255929 0
-0.0383085 0.0152168 0
-0.11339 -0.0304437 0
1.82847 1.82268 0
0.34177 0.0509372 0
0.0568946 0.338268 0
0.0923749 0.0929881 0
0.267301 0.110931 0
-0.0214896 0.112645 0
0.0617009 -0.00625726 0
0.0231767 0.041126 0
0.118547 0.257804 0
0.00132783 0.0572512 0
0.112686 -0.025244 0
0.0394767 0.0178062 0
0.00417324 -0.00390246 0
-0.0137527 0.0352868 0
0.0361432 -0.0250653 0
0.0195767 0.0137403 0
0.0202935 0.0968928 0
-0.258876 0.106066 0
0.00841089 0.0414357 0
-0.0554472 -0.00456325 0
-0.34388 0.0483899 0
-1.82276 1.8144 0
-0.0897621 0.0861341 0
-0.0527326 0.343194 0
0.00913545 0.0376592 0
0.000967965 -0.000720335 0
0.000301955 0.0178819 0
-0.0295538 -0.0195621 0
0.00135916 0.0547918 0
-0.116986 0.263389 0
-0.0348025 0.0210461 0
-0.107254 -0.02609 0
1.82024 1.82848 0
0.338998 0.0541016 0
0.0498301 0.341279 0
0.0910383 0.0942844 0
0.258335 0.118458 0
-0.0291979 0.113569 0
0.0566165 0.000419747 0
0.0193284 0.0396493 0
0.107336 0.262582 0
-0.0106473 0.0625941 0
0.116059 -0.0234852 0
0.0448031 0.0231733 0
-0.00718224 0.00249874 0
-0.0303666 0.036116 0
0.038596 -0.014956 0
0.0164732 0.0197776 0
-2.09793 0.0267219 0
-5.24231 0.0596812 0
-1.98056 0.407648 0
-4.73166 0.875762 0
-5.51633 0.0473677 0
-10.2657 0.109707 0
-4.96973 0.939901 0
-9.38746 2.20911 0
-2.22281 0.401336 0
-4.8987 0.933167 0
-1.27956 0.538347 0
-3.35761 1.28684 0
-5.15003 1.01787 0
-9.53892 2.396 0
-3.52482 1.45205 0
-6.71849 3.44213 0
-9.95787 2.60855 0
-14.4157 4.55444 0
-7.03084 3.49711 0
-10.4408 7.07152 0
-14.7712 5.77852 0
-15.1217 7.31141 0
-10.7164 6.98963 0
-12.2031 11.6112 0
-11.6497 12.2443 0
-7.31408 15.1016 0
-6.98545 10.6965 0
-5.67342 14.6931 0
-7.14771 10.4372 0
-4.90968 14.3804 0
-3.43173 7.05245 0
-2.36054 10.0258 0
-4.58346 14.2387 0
-0.21049 15.6033 0
-2.19963 9.74377 0
-0.104486 10.8878 0
15.081 7.29166 0
14.7588 5.77833 0
12.225 11.6164 0
10.7127 6.98902 0
14.4026 4.55415 0
9.96929 2.61156 0
10.4394 7.0762 0
7.01933 3.49687 0
7.28549 15.1 0
11.637 12.2316 0
5.69755 14.6944 0
6.98782 10.6916 0
0.203333 15.6044 0
4.57362 14.2314 0
0.10843 10.8882 0
2.20037 9.74023 0
4.89983 14.3841 0
7.14199 10.4393 0
2.36055 10.0218 0
3.43053 7.04681 0
10.2595 0.0990225 0
5.51357 0.0417169 0
9.39329 2.21397 0
4.96756 0.941388 0
5.23876 0.0531535 0
2.09397 0.0244796 0
4.73028 0.877872 0
1.96143 0.412947 0
9.54951 2.39173 0
5.16252 1.01364 0
6.70828 3.44591 0
3.50788 1.45107 0
4.91151 0.932112 0
2.2283 0.405849 0
3.34065 1.28461 0
1.27174 0.533785 0
-3.49437 -7.02753 0
-2.6099 -9.97653 0
-7.08494 -10.4397 0
-4.56082 -14.401 0
-6.97164 -10.7186 0
-5.76068 -14.7641 0
-11.6404 -12.2278 0
-7.31082 -15.0838 0
-7.05757 -3.42991 0
-10.4309 -7.1448 0
-10.0173 -2.36385 0
-14.402 -4.91012 0
-10.6816 -6.98581 0
-12.204 -11.641 0
-14.7128 -5.70751 0
-15.1285 -7.28828 0
-9.74436 -2.19557 0
-14.217 -4.5709 0
-10.8944 -0.115132 0
-15.6191 -0.217988 0
0.0233733 -2.09741 0
0.411717 -1.96512 0
0.0517371 -5.24213 0
0.876268 -4.73394 0
0.404625 -2.23199 0
0.532475 -1.27589 0
0.930503 -4.91519 0
1.2828 -3.34474 0
0.0403163 -5.51694 0
0.939806 -4.97122 0
0.0973312 -10.2628 0
2.21202 -9.39684 0
1.01205 -5.16619 0
1.44929 -3.51198 0
2.38977 -9.55307 0
3.44362 -6.71221 0
2.60965 -9.97285 0
3.49463 -7.02325 0
4.55189 -14.4059 0
7.07349 -10.443 0
5.77617 -14.7621 0
6.98636 -10.7163 0
7.28931 -15.0839 0
11.6134 -12.2281 0
12.2286 -11.64 0
10.6877 -6.99124 0
15.0967 -7.28765 0
14.6901 -5.70012 0
10.4353 -7.14543 0
7.04175 -3.4346 0
14.3797 -4.90242 0
10.0163 -2.36345 0
14.2269 -4.57615 0
9.73462 -2.20319 0
15.5997 -0.205147 0
10.8825 -0.110001 0
-3.42876 -7.0645 0
-2.3619 -10.0212 0
-7.14624 -10.4321 0
-4.9131 -14.4005 0
-2.19398 -9.74716 0
-0.111243 -10.893 0
-4.57465 -14.2289 0
-0.219461 -15.6133 0
-6.98286 -10.689 0
-5.67496 -14.7116 0
-11.6339 -12.2312 0
-7.30693 -15.1168 0
-7.04627 -3.48343 0
-10.4191 -7.07987 0
-9.97876 -2.62622 0
-14.3365 -4.65 0
-10.7612 -6.80291 0
-12.2232 -11.7888 0
-14.8312 -5.03903 0
-15.098 -8.13981 0
-14.3096 -4.69993 0
-16.1774 -7.67577 0
-16.4408 -1.23326 0
-17.2797 0.700664 0
0.11368 -10.893 0
2.19372 -9.74294 0
0.216845 -15.6169 0
4.56896 -14.215 0
2.36198 -10.0158 0
3.42781 -7.05628 0
4.90815 -14.4 0
7.14249 -10.4293 0
5.70547 -14.7107 0
6.98349 -10.6799 0
7.28565 -15.126 0
11.6382 -12.2021 0
12.2251 -11.6385 0
10.7158 -6.97006 0
15.0807 -7.30885 0
14.761 -5.75898 0
10.437 -7.08338 0
7.02474 -3.49305 0
14.398 -4.55909 0
9.97349 -2.60842 0
-3.49845 -7.03137 0
-2.60968 -9.95857 0
-7.073 -10.4415 0
-4.55574 -14.4165 0
-6.9911 -10.717 0
-5.77984 -14.772 0
-11.6128 -12.2039 0
-7.31283 -15.1226 0
-7.05456 -3.4323 0
-10.439 -7.14844 0
-10.0281 -2.36129 0
-14.3824 -4.91065 0
-10.6983 -6.98617 0
-12.2459 -11.6505 0
-14.6951 -5.67437 0
-15.1032 -7.31505 0
-9.74608 -2.2004 0
-14.2406 -4.58445 0
-10.8903 -0.105515 0
-15.6054 -0.211915 0
2.6256 -9.98006 0
3.48301 -7.04806 0
4.64887 -14.3379 0
7.07881 -10.4209 0
1.23212 -16.4418 0
4.69886 -14.3109 0
-0.702096 -17.2806 0
7.67431 -16.1786 0
5.03796 -14.8326 0
6.80188 -10.763 0
8.13835 -15.0993 0
11.7872 -12.2248 0
12.2296 -11.6356 0
10.6872 -6.98499 0
15.1149 -7.30823 0
14.7094 -5.67662 0
10.4303 -7.14841 0
7.06217 -3.43158 0
14.3982 -4.91476 0
10.0183 -2.36375 0
14.2267 -4.57626 0
9.7443 -2.19576 0
15.611 -0.220619 0
10.8901 -0.11193 0
-10.8908 0.107391 0
-15.6064 0.201901 0
-9.74342 2.19879 0
-14.2334 4.57107 0
-10.0251 2.35895 0
-14.3871 4.89722 0
-7.05106 3.42878 0
-10.443 7.13898 0
-14.6975 5.69603 0
-15.1 7.28332 0
-10.6955 6.98313 0
-12.2286 11.6283 0
-11.6297 12.2291 0
-7.28855 15.0907 0
-6.99557 10.6826 0
-5.6959 14.6976 0
-7.14569 10.4317 0
-4.90361 14.3892 0
-3.43285 7.04274 0
-2.36232 10.0201 0
-4.57806 14.2299 0
-0.205154 15.5993 0
-2.203 9.73583 0
-0.109681 10.8865 0
15.6145 0.215743 0
10.8902 0.11309 0
14.2131 4.56766 0
9.74108 2.19392 0
15.1228 7.28412 0
14.7098 5.70528 0
12.1965 11.6309 0
10.6807 6.98079 0
14.3991 4.90683 0
10.014 2.36223 0
10.4298 7.14156 0
7.05628 3.42901 0
7.30402 15.0903 0
11.6488 12.2305 0
5.67452 14.702 0
6.97547 10.6872 0
0.209335 15.6003 0
4.58303 14.228 0
0.102371 10.8859 0
2.19785 9.74109 0
4.90816 14.386 0
7.14776 10.4307 0
2.35726 10.0242 0
3.43077 7.04958 0
-10.8944 0.109859 0
-15.6154 0.218457 0
-9.74809 2.19275 0
-14.2298 4.57396 0
-10.023 2.36091 0
-14.4032 4.91295 0
-7.06471 3.42663 0
-10.4276 7.14345 0
-14.7146 5.67625 0
-15.1226 7.31544 0
-10.6847 6.98168 0
-12.2137 11.6351 0
-11.6482 12.2001 0
-7.31492 15.1257 0
-6.97219 10.6885 0
-5.68625 14.701 0
-7.14637 10.4292 0
-4.91535 14.3857 0
-3.4315 7.05944 0
-2.36313 10.0141 0
-4.57552 14.216 0
-0.223543 15.6136 0
-2.1932 9.74233 0
-0.109432 10.886 0
15.5984 0.208746 0
10.8823 0.102995 0
14.2337 4.58127 0
9.7389 2.19889 0
15.0945 7.31249 0
14.6893 5.67258 0
12.2344 11.6402 0
10.6941 6.98129 0
14.3765 4.90745 0
10.0213 2.35983 0
10.4345 7.14532 0
7.04961 3.43186 0
7.29614 15.1234 0
11.6164 12.205 0
5.70004 14.7007 0
6.99372 10.6843 0
0.212404 15.6103 0
4.56455 14.2254 0
0.11657 10.8868 0
2.19779 9.73869 0
4.90469 14.3949 0
7.1386 10.4312 0
2.36677 10.0128 0
3.43092 7.05612 0
-3.44543 6.70666 0
-2.38571 9.54469 0
-1.45901 3.50859 0
-1.02146 5.16303 0
-2.226 9.27977 0
-0.115076 10.3692 0
-0.956966 4.94327 0
-0.0598465 5.54373 0
-1.28598 3.33499 0
-0.932017 4.9074 0
-0.537957 1.26962 0
-0.417861 2.23862 0
-0.880928 4.70071 0
-0.0526193 5.27059 0
-0.425598 1.94883 0
-0.0372866 2.10626 0
0.115978 10.3698 0
2.22679 9.28238 0
0.0505666 5.54317 0
0.948685 4.94112 0
2.38614 9.5476 0
3.4447 6.71055 0
1.01309 5.15974 0
1.45273 3.50485 0
0.0559253 5.27027 0
0.882409 4.70316 0
0.0260442 2.10567 0
0.415978 1.94754 0
0.932958 4.90929 0
1.28259 3.33847 0
0.408445 2.2349 0
0.53474 1.26858 0
-1.28746 -0.540062 0
-3.35928 -1.28479 0
-2.21456 -0.404389 0
-4.8972 -0.931302 0
-3.52563 -1.45116 0
-6.72158 -3.44656 0
-5.14782 -1.01579 0
-9.54319 -2.3931 0
-1.97179 -0.412627 0
-4.71203 -0.878408 0
-2.11009 -0.0324139 0
-5.26999 -0.0595766 0
-4.95126 -0.947525 0
-9.28643 -2.22615 0
-5.54406 -0.0554605 0
-10.3753 -0.123597 0
6.70537 -3.44874 0
3.49852 -1.45773 0
9.54193 -2.3891 0
5.15346 -1.01647 0
3.33185 -1.28841 0
1.25887 -0.543568 0
4.90253 -0.935171 0
2.22939 -0.410578 0
9.27664 -2.22968 0
4.93416 -0.951981 0
10.364 -0.117719 0
5.53652 -0.0518098 0
4.69559 -0.884691 0
1.94374 -0.418305 0
5.263 -0.0572294 0
2.10229 -0.0268295 0
-0.53929 -1.28995 0
-0.411006 -2.21604 0
-1.28797 -3.3555 0
-0.930572 -4.89331 0
-0.419553 -1.97179 0
-0.0381738 -2.11025 0
-0.877775 -4.70694 0
-0.0563201 -5.27001 0
-1.45601 -3.53046 0
-1.02194 -5.14977 0
-3.44434 -6.71803 0
-2.38947 -9.53935 0
-0.954274 -4.9515 0
-0.0624988 -5.54434 0
-2.22332 -9.28241 0
-0.120827 -10.3735 0
0.0309736 -2.10928 0
0.410992 -1.97095 0
0.0579833 -5.26888 0
0.87668 -4.71094 0
0.402763 -2.21371 0
0.538265 -1.28682 0
0.929567 -4.89611 0
1.28289 -3.35833 0
0.0539406 -5.54295 0
0.945814 -4.95016 0
0.122053 -10.3738 0
2.22437 -9.28501 0
1.01407 -5.14671 0
1.44923 -3.52467 0
2.3913 -9.54171 0
3.4445 -6.72031 0
-0.539412 -1.27961 0
-0.402116 -2.22317 0
-1.28803 -3.35793 0
-0.934112 -4.8992 0
-0.408449 -1.98088 0
-0.0270978 -2.09816 0
-0.876709 -4.73218 0
-0.0603094 -5.24299 0
-1.45324 -3.52515 0
-1.01879 -5.15055 0
-3.44348 -6.71902 0
-2.39713 -9.53961 0
-0.940815 -4.97027 0
-0.0479844 -5.51702 0
-2.21023 -9.38816 0
-0.110618 -10.2666 0
-1.27221 -0.538083 0
-3.33737 -1.28636 0
-2.24143 -0.418057 0
-4.91002 -0.932535 0
-3.51097 -1.45938 0
-6.70879 -3.44601 0
-5.16563 -1.02196 0
-9.54701 -2.38651 0
-1.95165 -0.425791 0
-4.70335 -0.881452 0
-2.10946 -0.0375291 0
-5.27359 -0.0532874 0
-4.9459 -0.957465 0
-9.2821 -2.22681 0
-5.54671 -0.0605157 0
-10.3718 -0.116218 0
6.71568 -3.44723 0
3.52698 -1.45989 0
9.53645 -2.3914 0
5.14591 -1.02422 0
3.35202 -1.29237 0
1.28266 -0.54567 0
4.88939 -0.932578 0
2.21018 -0.413299 0
9.27951 -2.2252 0
4.9474 -0.956503 0
10.3706 -0.121641 0
5.53997 -0.0628393 0
4.70274 -0.87983 0
1.96643 -0.422045 0
5.26554 -0.0567363 0
2.10341 -0.03833 0
-2.10888 0.0257946 0
-5.27328 0.0552431 0
-1.95122 0.415684 0
-4.70668 0.88162 0
-5.54617 0.0498844 0
-10.3725 0.114814 0
-4.94465 0.947874 0
-9.28557 2.22531 0
-2.23849 0.408147 0
-4.91281 0.932157 0
-1.27271 0.534559 0
-3.34267 1.28187 0
-5.16325 1.01226 0
-9.55092 2.38463 0
-3.50906 1.45196 0
-6.71477 3.44316 0
-3.44926 6.70589 0
-2.39054 9.54512 0
-1.45587 3.50224 0
-1.01486 5.1549 0
-2.23242 9.27764 0
-0.11895 10.3673 0
-0.951415 4.93651 0
-0.0507854 5.53936 0
-1.28931 3.33483 0
-0.935736 4.90364 0
-0.541796 1.26598 0
-0.409469 2.22441 0
-0.885983 4.69736 0
-0.0577802 5.26484 0
-0.41779 1.94662 0
-0.0255791 2.1058 0
10.371 0.121329 0
5.53859 0.0537644 0
9.28308 2.22472 0
4.9469 0.947535 0
5.26443 0.0578016 0
2.10234 0.031238 0
4.70756 0.878193 0
1.96608 0.41369 0
9.53989 2.39167 0
5.14368 1.01583 0
6.72024 3.44597 0
3.52294 1.45269 0
4.893 0.931023 0
2.20834 0.405262 0
3.35658 1.28685 0
1.28047 0.544932 0
0.111495 10.3664 0
2.2267 9.27706 0
0.0590957 5.53877 0
0.958398 4.94117 0
2.38497 9.5428 0
3.44689 6.70426 0
1.0214 5.15854 0
1.45931 3.50907 0
0.0501672 5.2641 0
0.879699 4.69729 0
0.0378216 2.10637 0
0.426791 1.95001 0
0.929738 4.90228 0
1.28922 3.33452 0
0.417983 2.22506 0
0.544754 1.27223 0
-2.11116 0.0367668 0
-5.27119 0.0547556 0
-1.97288 0.418287 0
-4.7081 0.876185 0
-5.54553 0.0610139 0
-10.375 0.119344 0
-4.95267 0.952816 0
-9.28337 2.22166 0
-2.21725 0.409733 0
-4.89478 0.928989 0
-1.29125 0.538265 0
-3.3569 1.28627 0
-5.15125 1.02053 0
-9.54113 2.38791 0
-3.53189 1.45432 0