# vtk DataFile Version 3.0
#This file was generated by the deal.II library on 2020/8/22 at 21:53:49
ASCII
DATASET UNSTRUCTURED_GRID

POINTS 9216 double
-1 -1 0
-0.958333 -1 0
-1 -0.958333 0
-0.958333 -0.958333 0
-0.958333 -1 0
-0.916667 -1 0
-0.958333 -0.958333 0
-0.916667 -0.958333 0
-1 -0.958333 0
-0.958333 -0.958333 0
-1 -0.916667 0
-0.958333 -0.916667 0
-0.958333 -0.958333 0
-0.916667 -0.958333 0
-0.958333 -0.916667 0
-0.916667 -0.916667 0
-0.916667 -1 0
-0.875 -1 0
-0.916667 -0.958333 0
-0.875 -0.958333 0
-0.875 -1 0
-0.833333 -1 0
-0.875 -0.958333 0
-0.833333 -0.958333 0
-0.916667 -0.958333 0
-0.875 -0.958333 0
-0.916667 -0.916667 0
-0.875 -0.916667 0
-0.875 -0.958333 0
-0.833333 -0.958333 0
-0.875 -0.916667 0
-0.833333 -0.916667 0
-1 -0.916667 0
-0.958333 -0.916667 0
-1 -0.875 0
-0.958333 -0.875 0
-0.958333 -0.916667 0
-0.916667 -0.916667 0
-0.958333 -0.875 0
-0.916667 -0.875 0
-1 -0.875 0
-0.958333 -0.875 0
-1 -0.833333 0
-0.958333 -0.833333 0
-0.958333 -0.875 0
-0.916667 -0.875 0
-0.958333 -0.833333 0
-0.916667 -0.833333 0
-0.916667 -0.916667 0
-0.875 -0.916667 0
-0.916667 -0.875 0
-0.875 -0.875 0
-0.875 -0.916667 0
-0.833333 -0.916667 0
-0.875 -0.875 0
-0.833333 -0.875 0
-0.916667 -0.875 0
-0.875 -0.875 0
-0.916667 -0.833333 0
-0.875 -0.833333 0
-0.875 -0.875 0
-0.833333 -0.875 0
-0.875 -0.833333 0
-0.833333 -0.833333 0
-0.833333 -1 0
-0.791667 -1 0
-0.833333 -0.958333 0
-0.791667 -0.958333 0
-0.791667 -1 0
-0.75 -1 0
-0.791667 -0.958333 0
-0.75 -0.958333 0
-0.833333 -0.958333 0
-0.791667 -0.958333 0
-0.833333 -0.916667 0
-0.791667 -0.916667 0
-0.791667 -0.958333 0
-0.75 -0.958333 0
-0.791667 -0.916667 0
-0.75 -0.916667 0
-0.75 -1 0
-0.708333 -1 0
-0.75 -0.958333 0
-0.708333 -0.958333 0
-0.708333 -1 0
-0.666667 -1 0
-0.708333 -0.958333 0
-0.666667 -0.958333 0
-0.75 -0.958333 0
-0.708333 -0.958333 0
-0.75 -0.916667 0
-0.708333 -0.916667 0
-0.708333 -0.958333 0
-0.666667 -0.958333 0
-0.708333 -0.916667 0
-0.666667 -0.916667 0
-0.833333 -0.916667 0
-0.791667 -0.916667 0
-0.833333 -0.875 0
-0.791667 -0.875 0
-0.791667 -0.916667 0
-0.75 -0.916667 0
-0.791667 -0.875 0
-0.75 -0.875 0
-0.833333 -0.875 0
-0.791667 -0.875 0
-0.833333 -0.833333 0
-0.791667 -0.833333 0
-0.791667 -0.875 0
-0.75 -0.875 0
-0.791667 -0.833333 0
-0.75 -0.833333 0
-0.75 -0.916667 0
-0.708333 -0.916667 0
-0.75 -0.875 0
-0.708333 -0.875 0
-0.708333 -0.916667 0
-0.666667 -0.916667 0
-0.708333 -0.875 0
-0.666667 -0.875 0
-0.75 -0.875 0
-0.708333 -0.875 0
-0.75 -0.833333 0
-0.708333 -0.833333 0
-0.708333 -0.875 0
-0.666667 -0.875 0
-0.708333 -0.833333 0
-0.666667 -0.833333 0
-1 -0.833333 0
-0.958333 -0.833333 0
-1 -0.791667 0
-0.958333 -0.791667 0
-0.958333 -0.833333 0
-0.916667 -0.833333 0
-0.958333 -0.791667 0
-0.916667 -0.791667 0
-1 -0.791667 0
-0.958333 -0.791667 0
-1 -0.75 0
-0.958333 -0.75 0
-0.958333 -0.791667 0
-0.916667 -0.791667 0
-0.958333 -0.75 0
-0.916667 -0.75 0
-0.916667 -0.833333 0
-0.875 -0.833333 0
-0.916667 -0.791667 0
-0.875 -0.791667 0
-0.875 -0.833333 0
-0.833333 -0.833333 0
-0.875 -0.791667 0
-0.833333 -0.791667 0
-0.916667 -0.791667 0
-0.875 -0.791667 0
-0.916667 -0.75 0
-0.875 -0.75 0
-0.875 -0.791667 0
-0.833333 -0.791667 0
-0.875 -0.75 0
-0.833333 -0.75 0
-1 -0.75 0
-0.958333 -0.75 0
-1 -0.708333 0
-0.958333 -0.708333 0
-0.958333 -0.75 0
-0.916667 -0.75 0
-0.958333 -0.708333 0
-0.916667 -0.708333 0
-1 -0.708333 0
-0.958333 -0.708333 0
-1 -0.666667 0
-0.958333 -0.666667 0
-0.958333 -0.708333 0
-0.916667 -0.708333 0
-0.958333 -0.666667 0
-0.916667 -0.666667 0
-0.916667 -0.75 0
-0.875 -0.75 0
-0.916667 -0.708333 0
-0.875 -0.708333 0
-0.875 -0.75 0
-0.833333 -0.75 0
-0.875 -0.708333 0
-0.833333 -0.708333 0
-0.916667 -0.708333 0
-0.875 -0.708333 0
-0.916667 -0.666667 0
-0.875 -0.666667 0
-0.875 -0.708333 0
-0.833333 -0.708333 0
-0.875 -0.666667 0
-0.833333 -0.666667 0
-0.833333 -0.833333 0
-0.791667 -0.833333 0
-0.833333 -0.791667 0
-0.791667 -0.791667 0
-0.791667 -0.833333 0
-0.75 -0.833333 0
-0.791667 -0.791667 0
-0.75 -0.791667 0
-0.833333 -0.791667 0
-0.791667 -0.791667 0
-0.833333 -0.75 0
-0.791667 -0.75 0
-0.791667 -0.791667 0
-0.75 -0.791667 0
-0.791667 -0.75 0
-0.75 -0.75 0
-0.75 -0.833333 0
-0.708333 -0.833333 0
-0.75 -0.791667 0
-0.708333 -0.791667 0
-0.708333 -0.833333 0
-0.666667 -0.833333 0
-0.708333 -0.791667 0
-0.666667 -0.791667 0
-0.75 -0.791667 0
-0.708333 -0.791667 0
-0.75 -0.75 0
-0.708333 -0.75 0
-0.708333 -0.791667 0
-0.666667 -0.791667 0
-0.708333 -0.75 0
-0.666667 -0.75 0
-0.833333 -0.75 0
-0.791667 -0.75 0
-0.833333 -0.708333 0
-0.791667 -0.708333 0
-0.791667 -0.75 0
-0.75 -0.75 0
-0.791667 -0.708333 0
-0.75 -0.708333 0
-0.833333 -0.708333 0
-0.791667 -0.708333 0
-0.833333 -0.666667 0
-0.791667 -0.666667 0
-0.791667 -0.708333 0
-0.75 -0.708333 0
-0.791667 -0.666667 0
-0.75 -0.666667 0
-0.75 -0.75 0
-0.708333 -0.75 0
-0.75 -0.708333 0
-0.708333 -0.708333 0
-0.708333 -0.75 0
-0.666667 -0.75 0
-0.708333 -0.708333 0
-0.666667 -0.708333 0
-0.75 -0.708333 0
-0.708333 -0.708333 0
-0.75 -0.666667 0
-0.708333 -0.666667 0
-0.708333 -0.708333 0
-0.666667 -0.708333 0
-0.708333 -0.666667 0
-0.666667 -0.666667 0
-0.666667 -1 0
-0.625 -1 0
-0.666667 -0.958333 0
-0.625 -0.958333 0
-0.625 -1 0
-0.583333 -1 0
-0.625 -0.958333 0
-0.583333 -0.958333 0
-0.666667 -0.958333 0
-0.625 -0.958333 0
-0.666667 -0.916667 0
-0.625 -0.916667 0
-0.625 -0.958333 0
-0.583333 -0.958333 0
-0.625 -0.916667 0
-0.583333 -0.916667 0
-0.583333 -1 0
-0.541667 -1 0
-0.583333 -0.958333 0
-0.541667 -0.958333 0
-0.541667 -1 0
-0.5 -1 0
-0.541667 -0.958333 0
-0.5 -0.958333 0
-0.583333 -0.958333 0
-0.541667 -0.958333 0
-0.583333 -0.916667 0
-0.541667 -0.916667 0
-0.541667 -0.958333 0
-0.5 -0.958333 0
-0.541667 -0.916667 0
-0.5 -0.916667 0
-0.666667 -0.916667 0
-0.625 -0.916667 0
-0.666667 -0.875 0
-0.625 -0.875 0
-0.625 -0.916667 0
-0.583333 -0.916667 0
-0.625 -0.875 0
-0.583333 -0.875 0
-0.666667 -0.875 0
-0.625 -0.875 0
-0.666667 -0.833333 0
-0.625 -0.833333 0
-0.625 -0.875 0
-0.583333 -0.875 0
-0.625 -0.833333 0
-0.583333 -0.833333 0
-0.583333 -0.916667 0
-0.541667 -0.916667 0
-0.583333 -0.875 0
-0.541667 -0.875 0
-0.541667 -0.916667 0
-0.5 -0.916667 0
-0.541667 -0.875 0
-0.5 -0.875 0
-0.583333 -0.875 0
-0.541667 -0.875 0
-0.583333 -0.833333 0
-0.541667 -0.833333 0
-0.541667 -0.875 0
-0.5 -0.875 0
-0.541667 -0.833333 0
-0.5 -0.833333 0
-0.5 -1 0
-0.458333 -1 0
-0.5 -0.958333 0
-0.458333 -0.958333 0
-0.458333 -1 0
-0.416667 -1 0
-0.458333 -0.958333 0
-0.416667 -0.958333 0
-0.5 -0.958333 0
-0.458333 -0.958333 0
-0.5 -0.916667 0
-0.458333 -0.916667 0
-0.458333 -0.958333 0
-0.416667 -0.958333 0
-0.458333 -0.916667 0
-0.416667 -0.916667 0
-0.416667 -1 0
-0.375 -1 0
-0.416667 -0.958333 0
-0.375 -0.958333 0
-0.375 -1 0
-0.333333 -1 0
-0.375 -0.958333 0
-0.333333 -0.958333 0
-0.416667 -0.958333 0
-0.375 -0.958333 0
-0.416667 -0.916667 0
-0.375 -0.916667 0
-0.375 -0.958333 0
-0.333333 -0.958333 0
-0.375 -0.916667 0
-0.333333 -0.916667 0
-0.5 -0.916667 0
-0.458333 -0.916667 0
-0.5 -0.875 0
-0.458333 -0.875 0
-0.458333 -0.916667 0
-0.416667 -0.916667 0
-0.458333 -0.875 0
-0.416667 -0.875 0
-0.5 -0.875 0
-0.458333 -0.875 0
-0.5 -0.833333 0
-0.458333 -0.833333 0
-0.458333 -0.875 0
-0.416667 -0.875 0
-0.458333 -0.833333 0
-0.416667 -0.833333 0
-0.416667 -0.916667 0
-0.375 -0.916667 0
-0.416667 -0.875 0
-0.375 -0.875 0
-0.375 -0.916667 0
-0.333333 -0.916667 0
-0.375 -0.875 0
-0.333333 -0.875 0
-0.416667 -0.875 0
-0.375 -0.875 0
-0.416667 -0.833333 0
-0.375 -0.833333 0
-0.375 -0.875 0
-0.333333 -0.875 0
-0.375 -0.833333 0
-0.333333 -0.833333 0
-0.666667 -0.833333 0
-0.625 -0.833333 0
-0.666667 -0.791667 0
-0.625 -0.791667 0
-0.625 -0.833333 0
-0.583333 -0.833333 0
-0.625 -0.791667 0
-0.583333 -0.791667 0
-0.666667 -0.791667 0
-0.625 -0.791667 0
-0.666667 -0.75 0
-0.625 -0.75 0
-0.625 -0.791667 0
-0.583333 -0.791667 0
-0.625 -0.75 0
-0.583333 -0.75 0
-0.583333 -0.833333 0
-0.541667 -0.833333 0
-0.583333 -0.791667 0
-0.541667 -0.791667 0
-0.541667 -0.833333 0
-0.5 -0.833333 0
-0.541667 -0.791667 0
-0.5 -0.791667 0
-0.583333 -0.791667 0
-0.541667 -0.791667 0
-0.583333 -0.75 0
-0.541667 -0.75 0
-0.541667 -0.791667 0
-0.5 -0.791667 0
-0.541667 -0.75 0
-0.5 -0.75 0
-0.666667 -0.75 0
-0.625 -0.75 0
-0.666667 -0.708333 0
-0.625 -0.708333 0
-0.625 -0.75 0
-0.583333 -0.75 0
-0.625 -0.708333 0
-0.583333 -0.708333 0
-0.666667 -0.708333 0
-0.625 -0.708333 0
-0.666667 -0.666667 0
-0.625 -0.666667 0
-0.625 -0.708333 0
-0.583333 -0.708333 0
-0.625 -0.666667 0
-0.583333 -0.666667 0
-0.583333 -0.75 0
-0.541667 -0.75 0
-0.583333 -0.708333 0
-0.541667 -0.708333 0
-0.541667 -0.75 0
-0.5 -0.75 0
-0.541667 -0.708333 0
-0.5 -0.708333 0
-0.583333 -0.708333 0
-0.541667 -0.708333 0
-0.583333 -0.666667 0
-0.541667 -0.666667 0
-0.541667 -0.708333 0
-0.5 -0.708333 0
-0.541667 -0.666667 0
-0.5 -0.666667 0
-0.5 -0.833333 0
-0.458333 -0.833333 0
-0.5 -0.791667 0
-0.458333 -0.791667 0
-0.458333 -0.833333 0
-0.416667 -0.833333 0
-0.458333 -0.791667 0
-0.416667 -0.791667 0
-0.5 -0.791667 0
-0.458333 -0.791667 0
-0.5 -0.75 0
-0.458333 -0.75 0
-0.458333 -0.791667 0
-0.416667 -0.791667 0
-0.458333 -0.75 0
-0.416667 -0.75 0
-0.416667 -0.833333 0
-0.375 -0.833333 0
-0.416667 -0.791667 0
-0.375 -0.791667 0
-0.375 -0.833333 0
-0.333333 -0.833333 0
-0.375 -0.791667 0
-0.333333 -0.791667 0
-0.416667 -0.791667 0
-0.375 -0.791667 0
-0.416667 -0.75 0
-0.375 -0.75 0
-0.375 -0.791667 0
-0.333333 -0.791667 0
-0.375 -0.75 0
-0.333333 -0.75 0
-0.5 -0.75 0
-0.458333 -0.75 0
-0.5 -0.708333 0
-0.458333 -0.708333 0
-0.458333 -0.75 0
-0.416667 -0.75 0
-0.458333 -0.708333 0
-0.416667 -0.708333 0
-0.5 -0.708333 0
-0.458333 -0.708333 0
-0.5 -0.666667 0
-0.458333 -0.666667 0
-0.458333 -0.708333 0
-0.416667 -0.708333 0
-0.458333 -0.666667 0
-0.416667 -0.666667 0
-0.416667 -0.75 0
-0.375 -0.75 0
-0.416667 -0.708333 0
-0.375 -0.708333 0
-0.375 -0.75 0
-0.333333 -0.75 0
-0.375 -0.708333 0
-0.333333 -0.708333 0
-0.416667 -0.708333 0
-0.375 -0.708333 0
-0.416667 -0.666667 0
-0.375 -0.666667 0
-0.375 -0.708333 0
[...]
POINT_DATA 9216
VECTORS gradient double
-0.000147429 -0.00032229 0
-0.00116908 -0.000840595 0
-0.000751873 -0.00117237 0
-0.0016734 -0.00171392 0
-0.00112376 -0.000871251 0
-0.00277518 -0.00211257 0
-0.00161657 -0.00292868 0
-0.00390272 -0.00470975 0
-0.00068071 -0.00111482 0
-0.00292948 -0.00164336 0
-0.00207179 -0.00263638 0
-0.00466181 -0.00386727 0
-0.00288691 -0.00287458 0
-0.00680917 -0.00461284 0
-0.0045821 -0.00665925 0
-0.0107131 -0.0107132 0
-0.00274605 -0.00214794 0
-0.00558926 -0.00489431 0
-0.00387216 -0.00674439 0
-0.00827965 -0.0115346 0
-0.00563825 -0.00493871 0
-0.0101886 -0.0104293 0
-0.00837435 -0.014428 0
-0.015839 -0.025461 0
-0.00683056 -0.00666475 0
-0.0138339 -0.0113902 0
-0.0107312 -0.0153901 0
-0.0225245 -0.0263018 0
-0.0140407 -0.0143076 0
-0.0254605 -0.0252691 0
-0.0228659 -0.0329507 0
-0.0428039 -0.0580993 0
-0.00194771 -0.00259297 0
-0.00676087 -0.00382284 0
-0.00492165 -0.00532513 0
-0.0114852 -0.00817981 0
-0.0066968 -0.00666669 0
-0.0155651 -0.0107143 0
-0.0113663 -0.0135504 0
-0.0262664 -0.0224812 0
-0.00474944 -0.00536263 0
-0.0144606 -0.00826508 0
-0.0105338 -0.00982644 0
-0.0254186 -0.0157002 0
-0.0143635 -0.013746 0
-0.0331405 -0.0228121 0
-0.0252647 -0.0250687 0
-0.0580389 -0.0427371 0
-0.0156594 -0.0154649 0
-0.0317939 -0.0264211 0
-0.0264114 -0.0314695 0
-0.0549066 -0.0549184 0
-0.0323125 -0.033174 0
-0.058857 -0.0585198 0
-0.0558153 -0.0676939 0
-0.103843 -0.120911 0
-0.033393 -0.0319732 0
-0.0680416 -0.0558123 0
-0.0584986 -0.0584022 0
-0.120863 -0.103839 0
-0.0692001 -0.0688317 0
-0.126596 -0.12299 0
-0.122964 -0.1261 0
-0.227817 -0.227841 0
-0.0104135 -0.0104762 0
-0.0168965 -0.0203593 0
-0.0162087 -0.028778 0
-0.027275 -0.0509012 0
-0.0173932 -0.0203943 0
-0.0253499 -0.036356 0
-0.0280625 -0.0535107 0
-0.0420859 -0.0923778 0
-0.02603 -0.0286155 0
-0.0424873 -0.0506953 0
-0.0437934 -0.0657177 0
-0.0732685 -0.11617 0
-0.0435759 -0.053331 0
-0.0639442 -0.0922377 0
-0.0751958 -0.122157 0
-0.112436 -0.210828 0
-0.0261335 -0.0363629 0
-0.0340883 -0.0593661 0
-0.0433069 -0.0925573 0
-0.057749 -0.152399 0
-0.0350083 -0.0593373 0
-0.0405159 -0.0886457 0
-0.0591649 -0.148476 0
-0.0695844 -0.228769 0
-0.0655422 -0.0924257 0
-0.0860651 -0.152448 0
-0.115292 -0.211226 0
-0.153535 -0.347788 0
-0.0878495 -0.148501 0
-0.102235 -0.229141 0
-0.156743 -0.338757 0
-0.184247 -0.522029 0
-0.0601769 -0.0662597 0
-0.0986413 -0.117227 0
-0.106217 -0.135548 0
-0.177016 -0.241195 0
-0.101083 -0.123314 0
-0.148881 -0.213025 0
-0.181459 -0.252697 0
-0.270674 -0.436979 0
-0.129436 -0.137907 0
-0.212986 -0.245486 0
-0.232975 -0.253345 0
-0.387227 -0.453431 0
-0.218154 -0.257212 0
-0.322349 -0.444929 0
-0.396619 -0.473472 0
-0.590642 -0.820114 0
-0.152398 -0.21344 0
-0.200734 -0.351736 0
-0.277111 -0.437746 0
-0.3685 -0.719998 0
-0.204606 -0.342578 0
-0.238665 -0.528287 0
-0.375612 -0.702655 0
-0.441133 -1.07991 0
-0.329719 -0.44572 0
-0.435434 -0.733279 0
-0.604039 -0.821452 0
-0.802452 -1.3497 0
-0.443482 -0.715625 0
-0.518317 -1.09998 0
-0.817076 -1.31949 0
-0.95902 -2.02288 0
-0.010343 -0.0100507 0
-0.028814 -0.0160731 0
-0.0205272 -0.016494 0
-0.0508814 -0.0271376 0
-0.0286866 -0.0256379 0
-0.065879 -0.0437339 0
-0.0507292 -0.0420469 0
-0.116117 -0.0732111 0
-0.0203826 -0.0170088 0
-0.0535273 -0.0279487 0
-0.0365438 -0.0250012 0
-0.0924034 -0.0420026 0
-0.0533982 -0.0431542 0
-0.122222 -0.0751738 0
-0.0923338 -0.0635583 0
-0.210841 -0.11243 0
-0.0664632 -0.0597247 0
-0.13585 -0.106228 0
-0.117231 -0.0981193 0
-0.241166 -0.177018 0
-0.138236 -0.128949 0
-0.253787 -0.233025 0
-0.245489 -0.212408 0
-0.453464 -0.387235 0
-0.123437 -0.100594 0
-0.252843 -0.181522 0
-0.213114 -0.148414 0
-0.437065 -0.270714 0
-0.257391 -0.217634 0
-0.473714 -0.396726 0
-0.445054 -0.32183 0
-0.820336 -0.590661 0
-0.0365353 -0.0258242 0
-0.0925332 -0.0432687 0
-0.0595104 -0.0339097 0
-0.152494 -0.0577706 0
-0.0924699 -0.0651963 0
-0.211134 -0.115349 0
-0.152626 -0.0858664 0
-0.347935 -0.153615 0
-0.0597158 -0.0348818 0
-0.148408 -0.0592411 0
-0.0886923 -0.0406085 0
-0.228941 -0.0697357 0
-0.148517 -0.0877033 0
-0.3385 -0.156897 0
-0.229402 -0.102346 0
-0.522346 -0.184419 0
-0.213421 -0.151996 0
-0.43764 -0.277257 0
-0.351975 -0.200489 0
-0.720301 -0.368605 0
-0.445649 -0.329308 0
-0.821361 -0.604227 0
-0.733626 -0.435173 0
-1.35024 -0.802509 0
-0.342405 -0.204442 0
-0.702283 -0.375836 0
-0.528702 -0.238801 0
-1.08048 -0.441293 0
-0.715284 -0.443352 0
-1.31904 -0.817321 0
-1.10059 -0.518506 0
-2.02378 -0.959109 0
-0.259474 -0.259053 0
-0.428297 -0.463643 0
-0.463635 -0.427774 0
-0.769137 -0.769038 0
-0.43851 -0.484095 0
-0.649663 -0.838412 0
-0.787293 -0.800888 0
-1.17107 -1.38888 0
-0.484298 -0.438084 0
-0.801183 -0.787344 0
-0.838575 -0.649204 0
-1.38925 -1.17094 0
-0.819972 -0.819828 0
-1.21715 -1.42117 0
-1.42133 -1.21692 0
-2.11249 -2.11203 0
-0.66411 -0.839782 0
-0.87892 -1.37955 0
-1.19666 -1.391 0
-1.58866 -2.28338 0
-0.894594 -1.34874 0
-1.04722 -2.06725 0
-1.61633 -2.23538 0
-1.89634 -3.41998 0
-1.24354 -1.42332 0
-1.64838 -2.33543 0
-2.15728 -2.11507 0
-2.86266 -3.46918 0
-1.67685 -2.28647 0
-1.96525 -3.49669 0
-2.91074 -3.39985 0
-3.41408 -5.19304 0
-0.839626 -0.663824 0
-1.39091 -1.19678 0
-1.38001 -0.878732 0
-2.28417 -1.58855 0
-1.42302 -1.24357 0
-2.11492 -2.15716 0
-2.33596 -1.64839 0
-3.47011 -2.86223 0
-1.3482 -0.894608 0
-2.23488 -1.61649 0
-2.06805 -1.04749 0
-3.4212 -1.89627 0
-2.28569 -1.67714 0
-3.39931 -2.91068 0
-3.4976 -1.96563 0
-5.19439 -3.41378 0
-2.15973 -2.16023 0
-2.86585 -3.54142 0
-3.54191 -2.86615 0
-4.69878 -4.69794 0
-2.91394 -3.47083 0
-3.4178 -5.29893 0
-4.77542 -4.60764 0
-5.60036 -7.02891 0
-3.46985 -2.91461 0
-4.60709 -4.77504 0
-5.29979 -3.41826 0
-7.03007 -5.59984 0
-4.68245 -4.68346 0
-5.49465 -7.14145 0
-7.1421 -5.49509 0
-8.37548 -8.37486 0
-0.0412392 -0.08859 0
-0.04155 -0.121057 0
-0.0706785 -0.220178 0
-0.0719231 -0.312727 0
-0.0416717 -0.120998 0
-0.0349158 -0.151218 0
-0.0720755 -0.300912 0
-0.0605282 -0.389608 0
-0.103554 -0.220488 0
-0.104678 -0.313511 0
-0.186631 -0.502275 0
-0.189825 -0.713557 0
-0.104772 -0.30161 0
-0.0877431 -0.390792 0
-0.19001 -0.686401 0
-0.159392 -0.888914 0
-0.0341789 -0.151179 0
-0.0205245 -0.172801 0
-0.0593521 -0.378004 0
-0.035193 -0.442742 0
-0.0190175 -0.17279 0
-0.00107075 -0.180661 0
-0.0328351 -0.435487 0
-0.000858474 -0.459356 0
-0.0861523 -0.379102 0
-0.0513379 -0.444183 0
-0.156546 -0.862246 0
-0.0926039 -1.01007 0
-0.0482604 -0.436877 0
-0.0023458 -0.460817 0
-0.08709 -0.993399 0
-0.00243644 -1.04789 0
-0.241473 -0.508242 0
-0.244424 -0.722398 0
-0.446306 -1.04198 0
-0.453647 -1.4756 0
-0.244535 -0.694838 0
-0.20478 -0.90011 0
-0.453869 -1.42346 0
-0.380464 -1.83821 0
-0.524088 -1.06136 0
-0.531104 -1.50311 0
-0.969489 -1.95682 0
-0.984981 -2.76306 0
-0.531222 -1.45002 0
-0.444876 -1.87244 0
-0.98515 -2.67228 0
-0.825401 -3.4419 0
-0.201223 -0.873047 0
-0.119572 -1.02282 0
-0.373942 -1.78702 0
-0.221008 -2.08934 0
-0.112795 -1.00591 0
-0.00499657 -1.061 0
-0.20858 -2.05736 0
-0.00616322 -2.16872 0
-0.437351 -1.82033 0
-0.25931 -2.12808 0
-0.811666 -3.3528 0
-0.479391 -3.91305 0
-0.2451 -2.09553 0
-0.00985194 -2.20862 0
-0.453522 -3.85742 0
-0.0138256 -4.06359 0
0.000751741 -0.180663 0
0.0187217 -0.172814 0
0.00197425 -0.459294 0
0.033829 -0.435644 0
0.0202444 -0.172803 0
0.0339611 -0.151249 0
0.0361884 -0.442805 0
0.0600253 -0.378206 0
0.0013353 -0.460758 0
0.0473399 -0.436873 0
0.00414433 -1.04776 0
0.0886118 -0.993736 0
0.0504446 -0.444087 0
0.0854993 -0.379028 0
0.0941285 -1.01021 0
0.15758 -0.862672 0
0.0347197 -0.151207 0
0.0415588 -0.12111 0
0.0612001 -0.389789 0
0.0723342 -0.301115 0
0.0414528 -0.121043 0
0.041224 -0.0887113 0
0.0721735 -0.312981 0
0.0705492 -0.220356 0
0.0871299 -0.39069 0
0.104474 -0.301483 0
0.160425 -0.889311 0
0.190413 -0.686816 0
0.104413 -0.313422 0
0.103592 -0.220344 0
0.190218 -0.714112 0
0.186445 -0.502628 0
0.00308187 -1.06087 0
0.111053 -1.00588 0
0.00862432 -2.16849 0
0.210769 -2.05803 0
0.117881 -1.0226 0
0.199993 -0.872836 0
0.223211 -2.08966 0
0.375427 -1.7879 0
0.00704729 -2.20838 0
0.242547 -2.09547 0
0.0168852 -4.06322 0
0.456234 -3.85855 0
0.256837 -2.12765 0
0.435549 -1.81994 0
0.482142 -3.91362 0
0.813501 -3.35434 0
0.203624 -0.899856 0
0.243987 -0.69449 0
0.381962 -1.83902 0
0.45445 -1.42434 0
0.243938 -0.722164 0
0.241571 -0.507846 0
0.454225 -1.4767 0
0.446047 -1.04274 0
0.443194 -1.87196 0
0.530425 -1.44938 0
0.827284 -3.44331 0
0.985869 -2.67385 0
0.530407 -1.50265 0
0.524246 -1.06063 0
0.98572 -2.76494 0
0.969171 -1.95819 0
-1.05835 -1.99989 0
-1.07351 -2.82319 0
-1.91589 -3.31503 0
-1.94588 -4.66975 0
-1.07356 -2.73063 0
-0.899048 -3.51624 0
-1.94577 -4.52556 0
-1.62961 -5.81663 0
-1.98531 -3.38967 0
-2.01508 -4.77311 0
-3.4477 -5.04151 0
-3.50088 -7.08851 0
-2.01487 -4.6261 0
-1.68721 -5.94398 0
-3.5001 -6.88039 0
-2.9305 -8.82867 0
-0.884181 -3.4254 0
-0.52322 -3.99696 0
-1.60314 -5.67514 0
-0.946305 -6.61395 0
-0.495346 -3.94024 0
-0.0181104 -4.15012 0
-0.896885 -6.52564 0
-0.0278255 -6.87083 0
-1.65987 -5.79974 0
-0.980632 -6.75749 0
-2.88382 -8.6245 0
-1.70139 -10.0399 0
-0.929678 -6.66747 0
-0.0312671 -7.01895 0
-1.61487 -9.91255 0
-0.0505367 -10.4326 0
-3.45143 -5.14472 0
-3.50468 -7.23065 0
-5.65354 -6.83166 0
-5.73993 -9.59178 0
-3.50388 -7.01889 0
-2.93371 -9.00342 0
-5.73795 -9.32094 0
-4.80302 -11.9453 0
-5.547 -6.94147 0
-5.63385 -9.74241 0
-8.45275 -8.14617 0
-8.5813 -11.4257 0
-5.632 -9.46787 0
-4.71482 -12.1301 0
-8.57761 -11.1118 0
-7.17867 -14.2276 0
-2.887 -8.7957 0
-1.70339 -10.2367 0
-4.72777 -11.6797 0
-2.78797 -13.5848 0
-1.61682 -10.1071 0
-0.050884 -10.6358 0
-2.64923 -13.4192 0
-0.0830625 -14.1187 0
-4.64091 -11.8609 0
-2.73555 -13.7929 0
-7.06776 -13.9198 0
-4.16605 -16.1805 0
-2.59921 -13.625 0
-0.0780551 -14.3335 0
-3.96236 -15.9887 0
-0.12375 -16.8181 0
0.014977 -4.14973 0
0.492482 -3.94014 0
0.0307417 -6.8703 0
0.899448 -6.52731 0
0.520473 -3.99626 0
0.882156 -3.42477 0
0.948956 -6.61479 0
1.60486 -5.67741 0
0.0291177 -7.01838 0
0.927683 -6.66735 0
0.0518613 -10.4319 0
1.61597 -9.91463 0
0.978786 -6.75647 0
1.65844 -5.79887 0
1.70266 -10.0409 0
2.88453 -8.62732 0
0.897194 -3.51543 0
1.07266 -2.7296 0
1.63146 -5.81867 0
1.94644 -4.52789 0
1.07276 -2.8224 0
1.05853 -1.9987 0
1.94663 -4.67246 0
1.91559 -3.31705 0
1.686 -5.94278 0
2.01423 -4.62465 0
2.93144 -8.8311 0
3.50036 -6.88326 0
2.01461 -4.77193 0
1.98542 -3.38799 0
3.50132 -7.09175 0
3.44755 -5.04396 0
0.0515643 -10.635 0
1.61735 -10.1071 0
0.0809556 -14.1178 0
2.64723 -13.4214 0
1.70409 -10.2355 0
2.88732 -8.79473 0
2.78624 -13.5857 0
4.72633 -11.6825 0
0.083115 -14.3327 0
2.60366 -13.6252 0
0.116855 -16.8173 0
3.95602 -15.9904 0
2.74019 -13.7916 0
4.64396 -11.8602 0
4.16011 -16.1808 0
7.06333 -13.9218 0
2.93428 -9.00193 0
3.50398 -7.0172 0
4.80198 -11.9475 0
5.73733 -9.32372 0
3.50497 -7.22921 0
3.45134 -5.14271 0
5.73963 -9.59481 0
5.65369 -6.83394 0
4.71813 -12.1287 0
5.63327 -9.46643 0
7.17483 -14.2288 0
8.57577 -11.1136 0
5.63531 -9.74109 0
5.54661 -6.93964 0
8.57995 -11.4275 0
8.45333 -8.14751 0
-0.0891251 -0.041377 0
-0.220094 -0.0708711 0
-0.120995 -0.0419529 0
-0.312959 -0.072182 0
-0.220496 -0.10371 0
-0.501928 -0.186854 0
-0.313824 -0.105154 0
-0.714013 -0.190046 0
-0.121569 -0.0420914 0
-0.300864 -0.0723393 0
-0.151092 -0.0355749 0
-0.389854 -0.0608227 0
-0.301648 -0.105264 0
-0.68611 -0.190228 0
-0.391093 -0.0885335 0
-0.889397 -0.159574 0
-0.507982 -0.241675 0
-1.04146 -0.446545 0
-0.722939 -0.24502 0
-1.47635 -0.453801 0
-1.06086 -0.524376 0
-1.95617 -0.969696 0
-1.50389 -0.531832 0
-2.76417 -0.985032 0
-0.694622 -0.245148 0
-1.42301 -0.454009 0
-0.900645 -0.205778 0
-1.83895 -0.380504 0
-1.44958 -0.531962 0
-2.67172 -0.985171 0
-1.87318 -0.446061 0
-3.44291 -0.825292 0
-0.151637 -0.0348159 0
-0.378044 -0.0596069 0
-0.172694 -0.0212996 0
-0.442941 -0.035426 0
-0.379205 -0.0869194 0
-0.862157 -0.156663 0
-0.4444 -0.0522854 0
-1.01043 -0.0926489 0
-0.173026 -0.0197397 0
-0.435635 -0.0329981 0
-0.180641 -0.00178256 0
-0.459464 -0.000950225 0
-0.437049 -0.0491539 0
-0.993578 -0.0870309 0
-0.460897 -0.00323692 0
-1.04802 -0.0022871 0
-0.873003 -0.202173 0
-1.78686 -0.373865 0
-1.02319 -0.120771 0
-2.08983 -0.220829 0
-1.82015 -0.438442 0
-3.3526 -0.81136 0
-2.12851 -0.260699 0
-3.9136 -0.479002 0
-1.00609 -0.1139 0
-2.05759 -0.208222 0
-1.06107 -0.00612006 0
-2.16877 -0.00572434 0
-2.0957 -0.246323 0
-3.85769 -0.452843 0
-2.20856 -0.011108 0
-4.06344 -0.0131253 0
-1.99911 -1.05877 0
-3.31429 -1.916 0
-2.82418 -1.07432 0
-4.67117 -1.94582 0
-3.38861 -1.98587 0
-5.04076 -3.44763 0
-4.7742 -2.01583 0
-7.09 -3.50075 0
-2.72991 -1.07436 0
-4.52492 -1.94565 0
-3.51712 -0.900265 0
-5.81782 -1.62943 0
-4.62512 -2.01559 0
-6.87977 -3.49988 0
-5.94486 -1.68817 0
-8.82978 -2.93041 0
-5.14348 -3.45211 0
-6.83102 -5.65328 0
-7.23165 -3.50519 0
-9.59295 -5.73984 0
-6.94035 -5.54768 0
-8.14588 -8.4524 0
-9.74308 -5.63397 0
-11.4261 -8.58144 0
-7.01777 -3.5043 0
-9.32048 -5.73774 0
-9.00411 -2.93406 0
-11.946 -4.80329 0
-9.46695 -5.63195 0
-11.1117 -8.57757 0
-12.1304 -4.71433 0
-14.2275 -7.17951 0
-3.42505 -0.885224 0
-5.67492 -1.60265 0
-3.99737 -0.524549 0
-6.61443 -0.945853 0
-5.7992 -1.66053 0
-8.6243 -2.88331 0
-6.75774 -0.981476 0
-10.0401 -1.70118 0
-3.94037 -0.496397 0
-6.52593 -0.895997 0
-4.14982 -0.0191949 0
-6.87034 -0.027056 0
-6.66753 -0.93009 0
-9.91284 -1.61405 0
-7.01832 -0.0317031 0
-10.4317 -0.0500718 0
-8.79508 -2.88691 0
-11.6796 -4.72749 0
-10.2367 -1.70329 0
-13.5846 -2.78837 0
-11.8605 -4.63984 0
-13.9201 -7.06795 0
-13.7925 -2.73427 0
-16.1797 -4.16729 0
-10.1072 -1.61611 0
-13.4195 -2.64887 0
-10.6348 -0.0501969 0
-14.1174 -0.083335 0
-13.6252 -2.59714 0
-15.9891 -3.96272 0
-14.3323 -0.0760537 0
-16.8166 -0.124992 0
-0.180652 0.0001001 0
-0.459522 0.00195253 0
-0.172896 0.0182249 0
-0.435651 0.0339041 0
-0.460961 0.000505267 0
-1.04815 0.00439138 0
-0.436808 0.0466976 0
-0.99361 0.0889379 0
-0.172608 0.0197905 0
-0.443046 0.036305 0
-0.151387 0.0337531 0
-0.378137 0.0602304 0
-0.444257 0.0498457 0
-1.01065 0.094506 0
-0.378854 0.0852111 0
-0.862367 0.157994 0
-1.0612 0.0020571 0
-2.169 0.00922468 0
-1.00564 0.110254 0
-2.05763 0.211401 0
-2.2088 0.00595699 0
-4.06382 0.017843 0
-2.09493 0.241712 0
-3.85772 0.457141 0
-1.02294 0.117145 0
-2.09022 0.223922 0
-0.872379 0.199653 0
-1.78721 0.3761 0
-2.1281 0.256101 0
-3.91423 0.483168 0
-1.81909 0.435273 0
-3.3531 0.814401 0
-0.150933 0.0345252 0
-0.389974 0.0614071 0
-0.121231 0.0416231 0
-0.301011 0.0725929 0
-0.390765 0.0868552 0
-0.889646 0.160832 0
-0.301255 0.104535 0
-0.686453 0.190799 0
-0.120781 0.0415054 0
-0.313066 0.0724039 0
-0.0887611 0.0414795 0
-0.220251 0.0707834 0
-0.313378 0.104462 0
-0.714239 0.190555 0
-0.220115 0.103909 0
-0.502308 0.18671 0
-0.900048 0.203296 0
-1.83939 0.382612 0
-0.693958 0.244094 0
-1.42358 0.454991 0
-1.87218 0.442922 0
-3.44361 0.828137 0
-1.44846 0.530664 0
-2.67257 0.986532 0
-0.722129 0.244017 0
-1.47675 0.454674 0
-0.507363 0.242003 0
-1.0421 0.446338 0
-1.50254 0.530582 0
-2.76479 0.986227 0
-1.05984 0.524831 0
-1.95714 0.969455 0
-4.1502 0.0141561 0
-6.87091 0.0318928 0
-3.93919 0.491909 0
-6.52594 0.900431 0
-7.01886 0.0290708 0
-10.4324 0.0528453 0
-6.66594 0.927798 0
-9.91276 1.61666 0
-3.99677 0.52004 0
-6.61534 0.950107 0
-3.42343 0.88217 0
-5.67556 1.60582 0
-6.757 0.979089 0
-10.0413 1.70357 0
-5.79708 1.65903 0
-8.625 2.88524 0
-10.6355 0.0527791 0
-14.1182 0.0813257 0
-10.1053 1.61854 0
-13.4193 2.6472 0
-14.3331 0.0857671 0
-16.8175 0.116326 0
-13.6234 2.60602 0
-15.9885 3.95507 0
-10.236 1.70551 0
-13.5858 2.78647 0
-8.79271 2.88872 0
-11.6801 4.72646 0
-13.7921 2.74279 0
-16.1807 4.15941 0
-11.8584 4.64612 0
-13.92 7.06275 0
-3.51565 0.897192 0
-5.81881 1.63233 0
-2.72824 1.07315 0
-4.52606 1.94711 0
-5.94299 1.68654 0
-8.83101 2.93203 0
-4.62296 2.01507 0
-6.88109 3.50084 0
-2.8222 1.07312 0
-4.67205 1.94705 0
-1.99762 1.05927 0
-3.31562 1.91581 0
-4.77167 2.01523 0
-7.0911 3.50146 0
-3.38674 1.98625 0
-5.04237 3.44764 0
-9.00214 2.93556 0
-11.9472 4.80194 0
-7.01544 3.5052 0
-9.32168 5.73745 0
-12.1289 4.72008 0
-14.2283 7.17401 0
-9.46501 5.63473 0
-11.1123 8.57547 0
-7.22897 3.50585 0
-9.59404 5.73931 0
-5.14156 3.45212 0
-6.83259 5.65364 0
-9.74092 5.63629 0
-11.4267 8.57911 0
-6.93892 5.54713 0
-8.14687 8.45318 0
-8.22141 -8.22193 0
-8.35079 -11.529 0
-11.5292 -8.35045 0
-11.7044 -11.7049 0
-8.34739 -11.2127 0
-6.98689 -14.3541 0
-11.6987 -11.388 0
-9.78943 -14.5735 0
-11.2125 -8.3468 0
-11.3887 -11.699 0
-14.3539 -6.98563 0
-14.5726 -9.79084 0
-11.3834 -11.3824 0
-9.52662 -14.5657 0
-14.5651 -9.52497 0
-12.1867 -12.1885 0
-6.87884 -14.044 0
-4.05187 -16.3228 0
-9.63994 -14.263 0
-5.67985 -16.5733 0
-3.85329 -16.1295 0
-0.112512 -16.9651 0
-5.40606 -16.3798 0
-0.167318 -17.2269 0
-9.38103 -14.2554 0
-5.52322 -16.5642 0
-12.0025 -11.928 0
-7.06904 -13.8593 0
-5.25637 -16.371 0
-0.151614 -17.2176 0
-6.73206 -13.6972 0
-0.20554 -14.4048 0
-14.0442 -6.87687 0
-14.2637 -9.64065 0
-16.3221 -4.04961 0
-16.572 -5.68179 0
-14.2566 -9.37861 0
-11.9295 -12.0035 0
-16.5634 -5.52061 0
-13.8578 -7.07112 0
-16.13 -3.85012 0
-16.3804 -5.4071 0
-16.9639 -0.109515 0
-17.2256 -0.169305 0
-16.3719 -5.25282 0
-13.6981 -6.73333 0
-17.2168 -0.148421 0
-14.4039 -0.207549 0
-11.749 -11.7468 0
-6.91557 -13.6508 0
-13.6499 -6.91344 0
-8.03632 -8.03775 0
-6.58535 -13.491 0
-0.189863 -14.1895 0
-7.6564 -7.93976 0
-0.229728 -8.35109 0
-13.4925 -6.58237 0
-7.94084 -7.65721 0
-14.1892 -0.187413 0
-8.35095 -0.230818 0
-7.56513 -7.56342 0
-0.219681 -7.95814 0
-7.95834 -0.218565 0
-0.23406 -0.233565 0
0.122017 -16.9642 0
3.86173 -16.1301 0
0.155893 -17.2262 0
5.39564 -16.3805 0
4.0605 -16.3219 0
6.88466 -14.0441 0
5.66992 -16.5726 0
9.6327 -14.2633 0
0.163352 -17.2169 0
5.26681 -16.3722 0
0.192107 -14.4043 0
6.71983 -13.6965 0
5.53387 -16.5642 0
9.38825 -14.2569 0
7.05735 -13.8577 0
11.994 -11.9265 0
6.99297 -14.3533 0
8.34986 -11.2123 0
9.78293 -14.573 0
11.6958 -11.3881 0
8.35345 -11.5285 0
8.22072 -8.22107 0
11.7021 -11.7046 0
11.5302 -8.35012 0
9.53413 -14.5662 0
11.3865 -11.3837 0
12.1791 -12.1859 0
14.5616 -9.52288 0
11.392 -11.7 0
11.2117 -8.34772 0
14.5698 -9.78799 0
14.3551 -6.98338 0
0.199753 -14.1891 0
6.59412 -13.4929 0
0.218495 -8.35097 0
7.64617 -7.93782 0
6.9246 -13.6518 0
11.7551 -11.7497 0
8.02658 -8.0354 0
13.6428 -6.91013 0
0.223534 -7.95813 0
7.56848 -7.56561 0
0.229106 -0.233829 0
7.95379 -0.215894 0
7.9445 -7.65921 0
13.4949 -6.58634 0
8.34676 -0.228368 0
14.186 -0.18326 0
11.936 -12.0056 0
14.2592 -9.38193 0
13.8515 -7.06704 0
16.5605 -5.51678 0
14.2666 -9.64335 0
14.0435 -6.87994 0
16.5698 -5.67692 0
16.3231 -4.04589 0
13.7009 -6.73676 0
16.373 -5.25773 0
14.4014 -0.202912 0
17.2156 -0.143854 0
16.3819 -5.41121 0
16.1298 -3.85495 0
17.2249 -0.163631 0
16.9645 -0.105321 0
-16.9648 0.125734 0
-17.2263 0.154602 0
-16.1287 3.86486 0
-16.3794 5.39401 0
-17.2175 0.16724 0
-14.4043 0.190666 0
-16.3716 5.26991 0
-13.6966 6.71825 0
-16.3222 4.06386 0
-16.5723 5.6685 0
-14.0429 6.88719 0
-14.2628 9.63161 0
-16.5643 5.53713 0
-13.8572 7.05585 0
-14.2567 9.39049 0
-11.9274 11.993 0
-14.1896 0.202762 0
-8.35096 0.217741 0
-13.4933 6.59631 0
-7.93911 7.64551 0
-7.95843 0.224969 0
-0.233668 0.229636 0
-7.56692 7.56927 0
-0.217991 7.95465 0
-13.6516 6.92682 0
-8.03477 8.02585 0
-11.7508 11.7564 0
-6.91242 13.6426 0
-7.65856 7.94518 0
-0.227542 8.34734 0
-6.58838 13.495 0
-0.186326 14.1869 0
-14.3534 6.99521 0
-14.5725 9.78154 0
-11.2116 8.35123 0
-11.388 11.6952 0
-14.5661 9.536 0
-12.1854 12.1777 0
-11.3841 11.3874 0
-9.52429 14.5611 0
-11.5284 8.35423 0
-11.7041 11.7009 0
-8.22104 8.22077 0
-8.35054 11.5301 0
-11.6998 11.3922 0
-9.78771 14.5688 0
-8.34847 11.2112 0
-6.9849 14.3551 0
-12.0051 11.9368 0
-7.06642 13.8508 0
-9.38332 14.2593 0
-5.51937 16.5605 0
-6.73585 13.7005 0
-0.202184 14.4018 0
-5.25988 16.3724 0
-0.146971 17.2163 0
-9.643 14.2661 0
-5.67678 16.5693 0
-6.88133 14.0425 0
-4.04816 16.3233 0
-5.4106 16.3807 0
-0.163497 17.2251 0
-3.85668 16.1286 0