# vtk DataFile Version 3.0
#This file was generated by the deal.II library on 2020/8/22 at 21:53:39
ASCII
DATASET UNSTRUCTURED_GRID

POINTS 11128 double
0.5 0.5 0
1 0.5 0
0.5 1 0
1 1 0
0 0 0
0.25 0 0
0 0.25 0
0.25 0.25 0
0.25 0.25 0
0.5 0.25 0
0.25 0.5 0
0.5 0.5 0
0.75 0 0
1 0 0
0.75 0.25 0
1 0.25 0
0.5 0.25 0
0.75 0.25 0
0.5 0.5 0
0.75 0.5 0
0.75 0.25 0
1 0.25 0
0.75 0.5 0
1 0.5 0
0.25 0.5 0
0.5 0.5 0
0.25 0.75 0
0.5 0.75 0
0 0.75 0
0.25 0.75 0
0 1 0
0.25 1 0
0.25 0.75 0
0.5 0.75 0
0.25 1 0
0.5 1 0
-1 -0.25 0
-0.875 -0.25 0
-1 -0.125 0
-0.875 -0.125 0
-1 -0.125 0
-0.875 -0.125 0
-1 0 0
-0.875 0 0
-0.875 -0.125 0
-0.75 -0.125 0
-0.875 0 0
-0.75 0 0
-0.125 -0.25 0
0 -0.25 0
-0.125 -0.125 0
0 -0.125 0
-0.25 -0.125 0
-0.125 -0.125 0
-0.25 0 0
-0.125 0 0
-0.125 -0.125 0
0 -0.125 0
-0.125 0 0
0 0 0
-1 0 0
-0.875 0 0
-1 0.125 0
-0.875 0.125 0
-0.875 0 0
-0.75 0 0
-0.875 0.125 0
-0.75 0.125 0
-1 0.125 0
-0.875 0.125 0
-1 0.25 0
-0.875 0.25 0
-0.25 0 0
-0.125 0 0
-0.25 0.125 0
-0.125 0.125 0
-0.125 0 0
0 0 0
-0.125 0.125 0
0 0.125 0
-0.125 0.125 0
0 0.125 0
-0.125 0.25 0
0 0.25 0
-1 -1 0
-0.875 -1 0
-1 -0.875 0
-0.875 -0.875 0
-0.875 -1 0
-0.75 -1 0
-0.875 -0.875 0
-0.75 -0.875 0
-1 -0.875 0
-0.875 -0.875 0
-1 -0.75 0
-0.875 -0.75 0
-0.25 -1 0
-0.125 -1 0
-0.25 -0.875 0
-0.125 -0.875 0
-0.125 -1 0
0 -1 0
-0.125 -0.875 0
0 -0.875 0
-0.125 -0.875 0
0 -0.875 0
-0.125 -0.75 0
0 -0.75 0
0 -1 0
0.125 -1 0
0 -0.875 0
0.125 -0.875 0
0.125 -1 0
0.25 -1 0
0.125 -0.875 0
0.25 -0.875 0
0 -0.875 0
0.125 -0.875 0
0 -0.75 0
0.125 -0.75 0
0.75 -1 0
0.875 -1 0
0.75 -0.875 0
0.875 -0.875 0
0.875 -1 0
1 -1 0
0.875 -0.875 0
1 -0.875 0
0.875 -0.875 0
1 -0.875 0
0.875 -0.75 0
1 -0.75 0
0 -0.25 0
0.125 -0.25 0
0 -0.125 0
0.125 -0.125 0
0 -0.125 0
0.125 -0.125 0
0 0 0
0.125 0 0
0.125 -0.125 0
0.25 -0.125 0
0.125 0 0
0.25 0 0
0.875 -0.25 0
1 -0.25 0
0.875 -0.125 0
1 -0.125 0
0.75 -0.125 0
0.875 -0.125 0
0.75 0 0
0.875 0 0
0.875 -0.125 0
1 -0.125 0
0.875 0 0
1 0 0
-1 0.75 0
-0.875 0.75 0
-1 0.875 0
-0.875 0.875 0
-1 0.875 0
-0.875 0.875 0
-1 1 0
-0.875 1 0
-0.875 0.875 0
-0.75 0.875 0
-0.875 1 0
-0.75 1 0
-0.125 0.75 0
0 0.75 0
-0.125 0.875 0
0 0.875 0
-0.25 0.875 0
-0.125 0.875 0
-0.25 1 0
-0.125 1 0
-0.125 0.875 0
0 0.875 0
-0.125 1 0
0 1 0
0.25 0 0
0.375 0 0
0.25 0.125 0
0.375 0.125 0
0.375 0 0
0.5 0 0
0.375 0.125 0
0.5 0.125 0
0.25 0.125 0
0.375 0.125 0
0.25 0.25 0
0.375 0.25 0
0.375 0.125 0
0.5 0.125 0
0.375 0.25 0
0.5 0.25 0
0 0.25 0
0.125 0.25 0
0 0.375 0
0.125 0.375 0
0.125 0.25 0
0.25 0.25 0
0.125 0.375 0
0.25 0.375 0
0 0.375 0
0.125 0.375 0
0 0.5 0
0.125 0.5 0
0.125 0.375 0
0.25 0.375 0
0.125 0.5 0
0.25 0.5 0
0.5 0 0
0.625 0 0
0.5 0.125 0
0.625 0.125 0
0.625 0 0
0.75 0 0
0.625 0.125 0
0.75 0.125 0
0.5 0.125 0
0.625 0.125 0
0.5 0.25 0
0.625 0.25 0
0.625 0.125 0
0.75 0.125 0
0.625 0.25 0
0.75 0.25 0
0 0.5 0
0.125 0.5 0
0 0.625 0
0.125 0.625 0
0.125 0.5 0
0.25 0.5 0
0.125 0.625 0
0.25 0.625 0
0 0.625 0
0.125 0.625 0
0 0.75 0
0.125 0.75 0
0.125 0.625 0
0.25 0.625 0
0.125 0.75 0
0.25 0.75 0
-0.875 -0.3125 0
-0.8125 -0.3125 0
-0.875 -0.25 0
-0.8125 -0.25 0
-0.1875 -0.3125 0
-0.125 -0.3125 0
-0.1875 -0.25 0
-0.125 -0.25 0
-0.3125 0.125 0
-0.25 0.125 0
-0.3125 0.1875 0
-0.25 0.1875 0
-0.75 -0.1875 0
-0.6875 -0.1875 0
-0.75 -0.125 0
-0.6875 -0.125 0
-0.3125 -0.1875 0
-0.25 -0.1875 0
-0.3125 -0.125 0
-0.25 -0.125 0
-0.875 0.25 0
-0.8125 0.25 0
-0.875 0.3125 0
-0.8125 0.3125 0
-0.1875 0.25 0
-0.125 0.25 0
-0.1875 0.3125 0
-0.125 0.3125 0
-0.75 -0.875 0
-0.6875 -0.875 0
-0.75 -0.8125 0
-0.6875 -0.8125 0
-0.3125 -0.875 0
-0.25 -0.875 0
-0.3125 -0.8125 0
-0.25 -0.8125 0
0.25 -0.875 0
0.3125 -0.875 0
0.25 -0.8125 0
0.3125 -0.8125 0
0.125 -0.75 0
0.1875 -0.75 0
0.125 -0.6875 0
0.1875 -0.6875 0
0.8125 -0.75 0
0.875 -0.75 0
0.8125 -0.6875 0
0.875 -0.6875 0
0.125 -0.3125 0
0.1875 -0.3125 0
0.125 -0.25 0
0.1875 -0.25 0
0.25 -0.1875 0
0.3125 -0.1875 0
0.25 -0.125 0
0.3125 -0.125 0
0.8125 -0.3125 0
0.875 -0.3125 0
0.8125 -0.25 0
0.875 -0.25 0
0.6875 -0.1875 0
0.75 -0.1875 0
0.6875 -0.125 0
0.75 -0.125 0
-0.875 0.6875 0
-0.8125 0.6875 0
-0.875 0.75 0
-0.8125 0.75 0
-0.75 0.8125 0
-0.6875 0.8125 0
-0.75 0.875 0
-0.6875 0.875 0
-0.1875 0.6875 0
-0.125 0.6875 0
-0.1875 0.75 0
-0.125 0.75 0
-0.3125 0.8125 0
-0.25 0.8125 0
-0.3125 0.875 0
-0.25 0.875 0
-0.75 0.125 0
-0.6875 0.125 0
-0.75 0.1875 0
-0.6875 0.1875 0
-0.875 -0.75 0
-0.8125 -0.75 0
-0.875 -0.6875 0
-0.8125 -0.6875 0
-0.1875 -0.75 0
-0.125 -0.75 0
-0.1875 -0.6875 0
-0.125 -0.6875 0
0.6875 -0.875 0
0.75 -0.875 0
0.6875 -0.8125 0
0.75 -0.8125 0
-1 -0.5 0
-0.9375 -0.5 0
-1 -0.4375 0
-0.9375 -0.4375 0
-0.9375 -0.5 0
-0.875 -0.5 0
-0.9375 -0.4375 0
-0.875 -0.4375 0
-1 -0.4375 0
-0.9375 -0.4375 0
-1 -0.375 0
-0.9375 -0.375 0
-0.9375 -0.4375 0
-0.875 -0.4375 0
-0.9375 -0.375 0
-0.875 -0.375 0
-0.125 -0.5 0
-0.0625 -0.5 0
-0.125 -0.4375 0
-0.0625 -0.4375 0
-0.0625 -0.5 0
0 -0.5 0
-0.0625 -0.4375 0
0 -0.4375 0
-0.125 -0.4375 0
-0.0625 -0.4375 0
-0.125 -0.375 0
-0.0625 -0.375 0
-0.0625 -0.4375 0
0 -0.4375 0
-0.0625 -0.375 0
0 -0.375 0
-0.5 0 0
-0.4375 0 0
-0.5 0.0625 0
-0.4375 0.0625 0
-0.4375 0 0
-0.375 0 0
-0.4375 0.0625 0
-0.375 0.0625 0
-0.5 0.0625 0
-0.4375 0.0625 0
-0.5 0.125 0
-0.4375 0.125 0
-0.4375 0.0625 0
-0.375 0.0625 0
-0.4375 0.125 0
-0.375 0.125 0
-0.625 -0.125 0
-0.5625 -0.125 0
-0.625 -0.0625 0
-0.5625 -0.0625 0
-0.5625 -0.125 0
-0.5 -0.125 0
-0.5625 -0.0625 0
-0.5 -0.0625 0
-0.625 -0.0625 0
-0.5625 -0.0625 0
-0.625 0 0
-0.5625 0 0
-0.5625 -0.0625 0
-0.5 -0.0625 0
-0.5625 0 0
-0.5 0 0
-0.5 -0.125 0
-0.4375 -0.125 0
-0.5 -0.0625 0
-0.4375 -0.0625 0
-0.4375 -0.125 0
-0.375 -0.125 0
-0.4375 -0.0625 0
-0.375 -0.0625 0
-0.5 -0.0625 0
-0.4375 -0.0625 0
-0.5 0 0
-0.4375 0 0
-0.4375 -0.0625 0
-0.375 -0.0625 0
-0.4375 0 0
-0.375 0 0
-1 0.375 0
-0.9375 0.375 0
-1 0.4375 0
-0.9375 0.4375 0
-0.9375 0.375 0
-0.875 0.375 0
-0.9375 0.4375 0
-0.875 0.4375 0
-1 0.4375 0
-0.9375 0.4375 0
-1 0.5 0
-0.9375 0.5 0
-0.9375 0.4375 0
-0.875 0.4375 0
-0.9375 0.5 0
-0.875 0.5 0
-0.125 0.375 0
-0.0625 0.375 0
-0.125 0.4375 0
-0.0625 0.4375 0
-0.0625 0.375 0
0 0.375 0
-0.0625 0.4375 0
0 0.4375 0
-0.125 0.4375 0
-0.0625 0.4375 0
-0.125 0.5 0
-0.0625 0.5 0
-0.0625 0.4375 0
0 0.4375 0
-0.0625 0.5 0
0 0.5 0
-0.625 -1 0
-0.5625 -1 0
-0.625 -0.9375 0
-0.5625 -0.9375 0
-0.5625 -1 0
-0.5 -1 0
-0.5625 -0.9375 0
-0.5 -0.9375 0
-0.625 -0.9375 0
-0.5625 -0.9375 0
-0.625 -0.875 0
-0.5625 -0.875 0
-0.5625 -0.9375 0
-0.5 -0.9375 0
-0.5625 -0.875 0
-0.5 -0.875 0
-0.5 -1 0
-0.4375 -1 0
-0.5 -0.9375 0
-0.4375 -0.9375 0
-0.4375 -1 0
-0.375 -1 0
-0.4375 -0.9375 0
-0.375 -0.9375 0
-0.5 -0.9375 0
-0.4375 -0.9375 0
-0.5 -0.875 0
-0.4375 -0.875 0
-0.4375 -0.9375 0
-0.375 -0.9375 0
-0.4375 -0.875 0
-0.375 -0.875 0
0.375 -1 0
0.4375 -1 0
0.375 -0.9375 0
0.4375 -0.9375 0
0.4375 -1 0
0.5 -1 0
0.4375 -0.9375 0
0.5 -0.9375 0
0.375 -0.9375 0
0.4375 -0.9375 0
0.375 -0.875 0
0.4375 -0.875 0
0.4375 -0.9375 0
0.5 -0.9375 0
0.4375 -0.875 0
0.5 -0.875 0
0 -0.625 0
0.0625 -0.625 0
0 -0.5625 0
0.0625 -0.5625 0
0.0625 -0.625 0
0.125 -0.625 0
0.0625 -0.5625 0
0.125 -0.5625 0
0 -0.5625 0
0.0625 -0.5625 0
0 -0.5 0
0.0625 -0.5 0
0.0625 -0.5625 0
0.125 -0.5625 0
0.0625 -0.5 0
0.125 -0.5 0
0.875 -0.625 0
0.9375 -0.625 0
0.875 -0.5625 0
0.9375 -0.5625 0
0.9375 -0.625 0
1 -0.625 0
0.9375 -0.5625 0
1 -0.5625 0
0.875 -0.5625 0
0.9375 -0.5625 0
0.875 -0.5 0
0.9375 -0.5 0
0.9375 -0.5625 0
1 -0.5625 0
0.9375 -0.5 0
1 -0.5 0
0 -0.5 0
0.0625 -0.5 0
0 -0.4375 0
0.0625 -0.4375 0
0.0625 -0.5 0
0.125 -0.5 0
0.0625 -0.4375 0
0.125 -0.4375 0
0 -0.4375 0
0.0625 -0.4375 0
0 -0.375 0
0.0625 -0.375 0
0.0625 -0.4375 0
0.125 -0.4375 0
0.0625 -0.375 0
0.125 -0.375 0
0.375 -0.125 0
0.4375 -0.125 0
0.375 -0.0625 0
0.4375 -0.0625 0
0.4375 -0.125 0
0.5 -0.125 0
0.4375 -0.0625 0
0.5 -0.0625 0
0.375 -0.0625 0
0.4375 -0.0625 0
0.375 0 0
0.4375 0 0
0.4375 -0.0625 0
0.5 -0.0625 0
0.4375 0 0
0.5 0 0
0.875 -0.5 0
0.9375 -0.5 0
0.875 -0.4375 0
0.9375 -0.4375 0
0.9375 -0.5 0
1 -0.5 0
0.9375 -0.4375 0
1 -0.4375 0
0.875 -0.4375 0
0.9375 -0.4375 0
0.875 -0.375 0
0.9375 -0.375 0
0.9375 -0.4375 0
1 -0.4375 0
0.9375 -0.375 0
1 -0.375 0
0.5 -0.125 0
0.5625 -0.125 0
0.5 -0.0625 0
0.5625 -0.0625 0
0.5625 -0.125 0
0.625 -0.125 0
0.5625 -0.0625 0
0.625 -0.0625 0
0.5 -0.0625 0
0.5625 -0.0625 0
0.5 0 0
0.5625 0 0
0.5625 -0.0625 0
0.625 -0.0625 0
0.5625 0 0
0.625 0 0
-1 0.5 0
-0.9375 0.5 0
-1 0.5625 0
-0.9375 0.5625 0
-0.9375 0.5 0
-0.875 0.5 0
-0.9375 0.5625 0
-0.875 0.5625 0
-1 0.5625 0
-0.9375 0.5625 0
-1 0.625 0
-0.9375 0.625 0
-0.9375 0.5625 0
-0.875 0.5625 0
-0.9375 0.625 0
-0.875 0.625 0
-0.625 0.875 0
-0.5625 0.875 0
-0.625 0.9375 0
-0.5625 0.9375 0
-0.5625 0.875 0
-0.5 0.875 0
-0.5625 0.9375 0
-0.5 0.9375 0
-0.625 0.9375 0
-0.5625 0.9375 0
-0.625 1 0
-0.5625 1 0
-0.5625 0.9375 0
-0.5 0.9375 0
-0.5625 1 0
-0.5 1 0
-0.125 0.5 0
-0.0625 0.5 0
-0.125 0.5625 0
-0.0625 0.5625 0
-0.0625 0.5 0
0 0.5 0
-0.0625 0.5625 0
0 0.5625 0
-0.125 0.5625 0
-0.0625 0.5625 0
-0.125 0.625 0
-0.0625 0.625 0
-0.0625 0.5625 0
0 0.5625 0
-0.0625 0.625 0
0 0.625 0
-0.5 0.875 0
-0.4375 0.875 0
-0.5 0.9375 0
-0.4375 0.9375 0
-0.4375 0.875 0
-0.375 0.875 0
-0.4375 0.9375 0
-0.375 0.9375 0
-0.5 0.9375 0
-0.4375 0.9375 0
-0.5 1 0
-0.4375 1 0
-0.4375 0.9375 0
-0.375 0.9375 0
-0.4375 1 0
-0.375 1 0
-0.625 0 0
-0.5625 0 0
-0.625 0.0625 0
-0.5625 0.0625 0
-0.5625 0 0
-0.5 0 0
-0.5625 0.0625 0
-0.5 0.0625 0
-0.625 0.0625 0
-0.5625 0.0625 0
-0.625 0.125 0
-0.5625 0.125 0
-0.5625 0.0625 0
-0.5 0.0625 0
-0.5625 0.125 0
-0.5 0.125 0
-1 -0.625 0
-0.9375 -0.625 0
-1 -0.5625 0
-0.9375 -0.5625 0
-0.9375 -0.625 0
-0.875 -0.625 0
-0.9375 -0.5625 0
-0.875 -0.5625 0
-1 -0.5625 0
-0.9375 -0.5625 0
-1 -0.5 0
-0.9375 -0.5 0
-0.9375 -0.5625 0
-0.875 -0.5625 0
-0.9375 -0.5 0
-0.875 -0.5 0
-0.125 -0.625 0
-0.0625 -0.625 0
-0.125 -0.5625 0
-0.0625 -0.5625 0
-0.0625 -0.625 0
0 -0.625 0
-0.0625 -0.5625 0
0 -0.5625 0
-0.125 -0.5625 0
-0.0625 -0.5625 0
-0.125 -0.5 0
-0.0625 -0.5 0
-0.0625 -0.5625 0
0 -0.5625 0
-0.0625 -0.5 0
0 -0.5 0
0.5 -1 0
0.5625 -1 0
[...]
POINT_DATA 11128
VECTORS gradient double
0.0001049 9.01147e-05 0
0.000110014 9.24934e-06 0
1.53308e-05 0.000115965 0
-4.68156e-06 -1.99429e-07 0
0.0049944 0.00497891 0
-0.00504491 0.00747794 0
0.00750463 -0.00525481 0
-0.00202092 -0.0021267 0
0.00123736 0.00117887 0
0.000548979 -0.00051173 0
-0.000402665 0.000503431 0
0.000157149 0.000132154 0
0.00799051 0.0099823 0
-0.00376224 -0.000434501 0
-0.00140142 -0.00387411 0
0.00284662 0.00146041 0
7.76892e-05 -0.000514302 0
0.000271532 0.000940305 0
8.2438e-05 0.000112137 0
0.000124111 -1.63151e-05 0
0.00030699 -0.000779162 0
-1.21784e-05 0.000498548 0
0.000126566 0.00010702 0
9.46504e-05 -1.72982e-05 0
-0.000401884 3.10706e-05 0
0.000116088 6.60742e-05 0
0.000977145 0.000332977 0
4.61255e-05 0.000130921 0
0.0100639 0.00812296 0
-0.00377436 -0.00138317 0
-0.000423927 -0.00347684 0
0.00151966 0.0028527 0
-0.000747746 0.00034908 0
9.97089e-05 0.000129698 0
0.000546398 3.14406e-05 0
4.92755e-06 0.000103416 0
-0.0132571 -0.0352648 0
-0.345253 0.241733 0
-0.000439846 0.0230383 0
-0.0203117 0.0199297 0
0.00532467 0.014591 0
-0.0196415 0.0177171 0
0.00277293 -0.0011906 0
-0.0145222 -0.00869198 0
-0.0241169 0.0191055 0
-0.236906 0.347613 0
-0.0225376 0.000437734 0
0.0193582 -0.0163206 0
0.349697 0.238847 0
-0.0175982 -0.0209838 0
0.0195396 0.0222891 0
-0.000311173 0.0232604 0
0.238713 0.349655 0
0.0223355 0.0195869 0
-0.0211377 -0.0173343 0
0.0233596 -0.000365049 0
0.0198044 0.0197851 0
-0.00761448 0.0150464 0
0.015102 -0.00762704 0
-0.00255102 -0.0024825 0
0.00275447 0.0022054 0
-0.0141825 0.00741887 0
0.00484749 -0.0142416 0
-0.0198098 -0.017528 0
-0.0222021 -0.00058842 0
0.0189405 0.0168937 0
-0.0237996 -0.0188513 0
-0.237356 -0.348405 0
-0.00136601 -0.0234904 0
-0.0207965 -0.0192999 0
-0.0123986 0.0352618 0
-0.345553 -0.241968 0
-0.0207712 0.0168878 0
0.0246072 -0.000820235 0
0.238306 -0.350439 0
0.0203635 -0.0202612 0
0.0162107 0.00792722 0
0.00809221 -0.000520995 0
0.0169941 -0.0189312 0
-0.0157597 -0.0176094 0
0.0213777 -0.0203517 0
0.0107974 -0.026944 0
0.344352 -0.244478 0
-0.00658134 0.040546 0
0.00326733 0.00153785 0
-0.0137177 0.00540434 0
0.00446551 -0.0137912 0
-0.0179227 -0.0174561 0
-0.0219093 -0.00197235 0
0.0332332 -0.0118865 0
-0.021662 -0.019753 0
-0.239952 -0.344017 0
-0.000847268 -0.0229051 0
-0.0200975 -0.0213014 0
-0.0142502 0.0332153 0
-0.343353 -0.239799 0
-0.0352551 -0.0123972 0
0.0234737 -0.00136581 0
0.241964 -0.345518 0
0.0192717 -0.0207783 0
0.0142231 0.00484782 0
-0.00222459 0.00275389 0
0.0174975 -0.0197948 0
-0.00745023 -0.0141908 0
0.0188228 -0.0237828 0
0.00055647 -0.0222114 0
0.348338 -0.237321 0
-0.0169653 0.0189303 0
0.00117273 0.00277238 0
-0.0145881 0.00532364 0
0.00866186 -0.0145303 0
-0.0177268 -0.0196738 0
-0.023031 -0.000440824 0
0.035312 -0.0132596 0
-0.0199347 -0.0203459 0
-0.241701 -0.345305 0
-0.000468477 -0.0225464 0
-0.0191138 -0.0241526 0
0.0162498 0.0193406 0
-0.347659 -0.236973 0
-0.032122 -0.0145002 0
0.0257102 -0.00158245 0
0.240142 -0.344056 0
0.020421 -0.0209372 0
0.0166038 0.00349151 0
0.0102089 0.000338917 0
0.0165595 -0.0207049 0
-0.00980529 -0.0200906 0
0.0227146 -0.0250551 0
0.0126873 -0.0310955 0
0.343851 -0.241048 0
-0.0176645 0.0441227 0
0.016624 -0.0208688 0
-0.350379 0.238234 0
-0.000767662 0.0247688 0
-0.0202555 0.0204778 0
0.00794373 0.0163302 0
-0.0188645 0.0170704 0
-0.000585988 0.00796559 0
-0.017445 -0.015623 0
-0.0202616 0.0214883 0
-0.244536 0.344456 0
-0.0267603 0.0108133 0
0.0406335 -0.00660527 0
0.346176 0.242505 0
-0.0177856 -0.0463511 0
0.0248991 0.0210459 0
0.0130611 0.0343655 0
0.243431 0.343579 0
0.0209208 0.0211711 0
-0.0368528 -0.00463714 0
0.0272039 0.0123597 0
0.0180629 0.0176641 0
-0.00911278 0.0220268 0
0.0179674 -0.0156363 0
0.0147113 0.00802292 0
-0.0119412 -0.0323411 0
-0.344497 0.240372 0
-0.00224604 0.0248049 0
-0.0202512 0.0208476 0
0.0048223 0.0164709 0
-0.0201484 0.0172322 0
-0.00055107 0.0120873 0
-0.020285 -0.0112911 0
-0.0245653 0.0232025 0
-0.240847 0.343477 0
-0.0319217 0.0122652 0
0.0441513 -0.0169978 0
0.342993 0.243013 0
-0.00454266 -0.0369874 0
0.0209996 0.0212547 0
0.0126691 0.0275598 0
0.242049 0.346448 0
0.0218996 0.0242882 0
-0.0463812 -0.0187223 0
0.0334312 0.0141716 0
0.0180951 0.0178752 0
-0.0175917 0.018321 0
0.0217798 -0.00896946 0
0.00936742 0.014934 0
0.00880433 0.0413936 0
0.00138117 0.0957379 0
-0.0315551 -0.00581613 0
-0.0152091 -0.0133845 0
-0.000527843 0.103652 0
-0.00118963 0.152689 0
-0.0154184 -0.014503 0
-0.000388355 -0.018717 0
0.0069164 -0.00175901 0
0.00170187 0.00242268 0
0.000463314 0.00162892 0
-6.34033e-06 -0.000603225 0
0.00184681 0.00220214 0
0.000358104 0.00439763 0
0.000150803 -0.0014738 0
0.00042656 -0.00111484 0
0.0412344 0.00857121 0
-0.00554127 -0.0317221 0
0.09575 0.00119286 0
-0.0131508 -0.0152092 0
-0.00151298 0.00684121 0
0.00166204 0.000313022 0
0.00262227 0.00158647 0
-0.000480371 -4.28062e-05 0
0.103623 -0.000749895 0
-0.0142444 -0.0154256 0
0.152661 -0.00135429 0
-0.0183648 -0.000308582 0
0.00242114 0.00173111 0
-0.00138006 0.000103724 0
0.00464565 0.000320701 0
-0.000988547 0.000399919 0
0.000559429 0.15268 0
0.0013026 0.103299 0
0.00249586 -0.0187705 0
0.0165242 -0.0145694 0
-0.000173158 0.0956345 0
-0.0055086 0.0399239 0
0.0161166 -0.0134778 0
0.0306999 -0.00659427 0
0.000311037 0.0044189 0
-0.00104268 0.00217897 0
0.000313663 -0.00104896 0
0.000456961 -0.00153998 0
-0.000833672 0.00240829 0
-0.00599237 -0.00231291 0
0.000635605 -0.000566893 0
-0.000557875 0.00158839 0
0.152666 0.000447065 0
-0.0184226 0.00260668 0
0.103286 0.00131324 0
-0.0142609 0.016633 0
0.00466196 0.000303101 0
-0.000911775 0.000304769 0
0.00233222 -0.000993412 0
-0.00144559 0.000440288 0
0.0956783 -0.000239627 0
-0.0132123 0.0162417 0
0.0397181 -0.0048882 0
-0.00619243 0.0302319 0
0.00257659 -0.000792298 0
-0.000470901 0.000587454 0
-0.00206377 -0.00594904 0
0.0016199 -0.000303057 0
-0.90224 0.309982 0
-2.11342 1.3732 0
-0.450175 0.306091 0
-1.07561 0.845965 0
2.11242 1.37389 0
0.898042 0.30996 0
1.07704 0.844741 0
0.445645 0.308736 0
0.309672 -0.898492 0
0.308426 -0.446206 0
1.37347 -2.11281 0
0.844188 -1.07752 0
-0.845021 1.07421 0
-1.3693 2.10998 0
-0.310062 0.446382 0
-0.313655 0.899526 0
1.37403 2.1122 0
0.844208 1.07698 0
0.309374 0.898076 0
0.309273 0.446072 0
-0.450956 -0.307938 0
-1.07666 -0.843597 0
-0.901945 -0.309944 0
-2.11307 -1.37357 0
1.07611 -0.843539 0
0.448283 -0.307728 0
2.11154 -1.37503 0
0.901137 -0.309182 0
-0.306993 -0.449627 0
-0.315271 -0.903409 0
-0.846137 -1.07349 0
-1.36799 -2.1116 0
0.309965 -0.901895 0
0.307937 -0.450916 0
1.37358 -2.113 0
0.843583 -1.0766 0
-0.306054 -0.450233 0
-0.309932 -0.902311 0
-0.845941 -1.07568 0
-1.37317 -2.1135 0
-0.446426 -0.310135 0
-1.07422 -0.845123 0
-0.899607 -0.313746 0
-2.11003 -1.36944 0
1.07306 -0.846686 0
0.448374 -0.307539 0
2.11172 -1.36821 0
0.903242 -0.314974 0
-0.89852 0.309126 0
-2.11259 1.37366 0
-0.446617 0.309023 0
-1.07743 0.843725 0
-0.844011 1.07629 0
-1.37483 2.1119 0
-0.307057 0.447988 0
-0.3097 0.901297 0
2.11349 1.37337 0
0.902091 0.309413 0
1.07667 0.84367 0
0.449963 0.308417 0
1.37028 2.11017 0
0.844177 1.07463 0
0.315166 0.902881 0
0.309031 0.448569 0
-0.903633 0.315629 0
-2.11189 1.36821 0
-0.449956 0.307484 0
-1.07389 0.846372 0
-0.844553 1.07317 0
-1.36905 2.11053 0
-0.309966 0.449708 0
-0.313267 0.902969 0
2.10963 1.3706 0
0.902846 0.313949 0
1.07378 0.844688 0
0.448952 0.3091 0
1.37292 2.11394 0
0.845961 1.07577 0
0.309384 0.902445 0
0.306474 0.449385 0
-0.31023 -0.44587 0
-0.314951 -0.899446 0
-0.844646 -1.07497 0
-1.36913 -2.11043 0
-0.45121 -0.309363 0
-1.07355 -0.844062 0
-0.903126 -0.31366 0
-2.11038 -1.36894 0
1.07492 -0.844583 0
0.445805 -0.31019 0
2.11035 -1.36905 0
0.899354 -0.314896 0
0.314037 -0.903517 0
0.309851 -0.45175 0
1.36913 -2.11082 0
0.844242 -1.07413 0
-0.162502 0.000510632 0
-0.676547 0.0059537 0
-0.146586 0.0313234 0
-0.606298 0.0631825 0
-0.674814 0.00136969 0
-2.09811 0.0155086 0
-0.601891 0.116071 0
-1.91827 0.272006 0
-0.145905 0.034495 0
-0.616381 0.0684887 0
-0.107489 0.0540499 0
-0.444955 0.0938437 0
-0.614424 0.123617 0
-1.87991 0.287806 0
-0.438331 0.181844 0
-1.42746 0.407242 0
2.0936 0.0132777 0
0.637939 0.00183292 0
1.91615 0.274039 0
0.569312 0.118894 0
0.646096 0.00498856 0
-0.0128303 0.00183398 0
0.579783 0.071719 0
-0.0123185 0.0451276 0
1.87455 0.288399 0
0.580779 0.125748 0
1.42722 0.410585 0
0.414773 0.18441 0
0.588457 0.0771627 0
-0.0118495 0.0488036 0
0.426262 0.107892 0
-0.00983958 0.0736877 0
0.00182667 0.0125644 0
0.0451149 0.0120111 0
0.00491612 -0.646345 0
0.0716228 -0.580094 0
0.0487937 0.0115304 0
0.0736774 0.00942403 0
0.0770667 -0.588773 0
0.107766 -0.42667 0
0.00176341 -0.638188 0
0.118803 -0.569622 0
0.013145 -2.09383 0
0.273867 -1.91644 0
0.125657 -0.581094 0
0.184294 -0.415179 0
0.288225 -1.87484 0
0.410356 -1.4276 0
-0.409395 1.42559 0
-0.284373 1.87354 0
-0.186611 0.415807 0
-0.130405 0.581212 0
-0.269916 1.91489 0
-0.00799827 2.09331 0
-0.12363 0.570041 0
-0.00757704 0.637844 0
-0.108039 0.425885 0
-0.0761868 0.588198 0
-0.0743791 -0.00934973 0
-0.0503665 -0.0112081 0
-0.0706737 0.57964 0
-0.0035133 0.64628 0
-0.0467384 -0.0118323 0
-0.00373507 -0.0125675 0
0.0128109 2.09319 0
0.273607 1.91611 0
0.00211846 0.637819 0
0.119243 0.569534 0
0.288003 1.87462 0
0.41028 1.42705 0
0.126146 0.580747 0
0.184834 0.414986 0
0.00489991 0.646213 0
0.0716321 0.580061 0
0.0018778 -0.0125648 0
0.0452026 -0.0121067 0
0.0771033 0.588604 0
0.107915 0.426411 0
0.0488803 -0.0115026 0
0.0737381 -0.00975939 0
-0.107736 -0.0545708 0
-0.445092 -0.092932 0
-0.146526 -0.0354697 0
-0.61652 -0.0674012 0
-0.438917 -0.181858 0
-1.4282 -0.406645 0
-0.615067 -0.124891 0
-1.8807 -0.285891 0
-0.146588 -0.0323433 0
-0.606331 -0.0620728 0
-0.162445 -0.00161571 0
-0.676536 -0.0046842 0
-0.602359 -0.117437 0
-1.91892 -0.269964 0
-0.67499 -0.00322661 0
-2.0987 -0.0130149 0
1.42722 -0.407588 0
0.433651 -0.183564 0
1.87873 -0.286267 0
0.616677 -0.124767 0
0.440217 -0.0941126 0
0.0909388 -0.0560656 0
0.618132 -0.0691365 0
0.161859 -0.0378509 0
1.9184 -0.272254 0
0.600385 -0.118718 0
2.09576 -0.0126617 0
0.671582 -0.00172834 0
0.604742 -0.0655196 0
0.140283 -0.0378005 0
0.673333 -0.00474381 0
0.154908 -0.000688762 0
-0.0547733 -0.107207 0
-0.0363882 -0.146332 0
-0.0933317 -0.444348 0
-0.0665677 -0.616129 0
-0.033351 -0.146326 0
-0.00292704 -0.162438 0
-0.0612248 -0.605834 0
-0.00337366 -0.676574 0
-0.183184 -0.439098 0
-0.12784 -0.615332 0
-0.406198 -1.42641 0
-0.283515 -1.87919 0
-0.12051 -0.602482 0
-0.00704613 -0.675026 0
-0.267551 -1.91763 0
-0.00991844 -2.09844 0
0.00176224 -0.162453 0
0.032442 -0.146592 0
0.00482815 -0.676498 0
0.0621704 -0.606298 0
0.0355662 -0.146529 0
0.0546309 -0.107738 0
0.0674965 -0.616489 0
0.0929914 -0.445064 0
0.00337221 -0.67495 0
0.117535 -0.602324 0
0.0131444 -2.09862 0
0.270051 -1.91884 0
0.124987 -0.615033 0
0.181918 -0.438887 0
0.285976 -1.88063 0
0.406695 -1.42814 0
-0.0539206 -0.107493 0
-0.0343118 -0.145915 0
-0.0937249 -0.445012 0
-0.0683203 -0.616457 0
-0.0311359 -0.146596 0
-0.000258569 -0.162521 0
-0.0630097 -0.606377 0
-0.00572423 -0.67664 0
-0.181727 -0.438391 0
-0.123445 -0.614503 0
-0.407153 -1.42757 0
-0.28766 -1.88006 0
-0.115894 -0.601973 0
-0.00113322 -0.674911 0
-0.271854 -1.91842 0
-0.0153039 -2.09827 0
0.00920494 -0.0743895 0
-0.426026 -0.108096 0
0.0110143 -0.0503705 0
-0.588389 -0.0762461 0
-0.415948 -0.186666 0
-1.42571 -0.409496 0
-0.581402 -0.130469 0
-1.87371 -0.284497 0
0.0116396 -0.0467426 0
-0.579827 -0.0707342 0
0.0123133 -0.00372851 0
-0.646539 -0.00357106 0
-0.570227 -0.123695 0
-1.91506 -0.270045 0
-0.638102 -0.00763561 0
-2.09359 -0.0081179 0
1.42618 -0.407068 0
0.436633 -0.185259 0
1.87946 -0.28401 0
0.616503 -0.128823 0
0.442053 -0.0949469 0
0.0952528 -0.0586331 0
0.617117 -0.0677408 0
0.155207 -0.0385857 0
1.91697 -0.268106 0
0.6003 -0.121659 0
2.09818 -0.00994154 0
0.674565 -0.00690773 0
0.603736 -0.0628259 0
0.137369 -0.0365729 0
0.676038 -0.00305288 0
0.163073 -0.00212712 0
0.0122994 0.00188995 0
-0.646508 0.00485314 0
0.0117991 0.0452212 0
-0.580318 0.0715734 0
-0.638111 0.00207772 0
-2.09361 0.0127295 0
-0.56979 0.119206 0
-1.91622 0.273525 0
0.0111835 0.0488941 0
-0.588899 0.0770326 0
0.00934409 0.0737569 0
-0.426811 0.107818 0
-0.581042 0.126089 0
-1.87481 0.287879 0
-0.415386 0.184734 0
-1.42739 0.410052 0
-0.407828 1.4275 0
-0.286624 1.87898 0
-0.183046 0.433644 0
-0.124306 0.617077 0
-0.272656 1.91865 0
-0.013101 2.0964 0
-0.118339 0.600438 0
-0.00139643 0.672028 0
-0.0939969 0.440253 0
-0.0691016 0.618375 0
-0.055868 0.0913917 0
-0.0376735 0.16156 0
-0.0655189 0.604732 0
-0.0047925 0.673528 0
-0.0376596 0.14048 0
-0.000582992 0.155227 0
2.09835 0.0130275 0
0.674453 0.00322793 0
1.91832 0.270468 0
0.600163 0.118725 0
0.675928 0.00437611 0
0.162941 0.000792783 0
0.604222 0.0636865 0
0.137373 0.0356172 0
1.88101 0.286326 0
0.616213 0.126012 0
1.42824 0.407417 0
0.436514 0.184135 0
0.617485 0.0685611 0
0.155043 0.0376974 0
0.442881 0.094665 0
0.0950417 0.0589232 0
0.00774123 2.09636 0
0.268593 1.91784 0
0.00817945 0.672001 0
0.12386 0.601258 0
0.282707 1.87819 0
0.407233 1.42644 0
0.129658 0.617866 0
0.185442 0.434834 0
0.00299633 0.673535 0
0.0642784 0.604529 0
0.00412995 0.155314 0
0.040564 0.140912 0
0.0679405 0.618181 0
0.0943521 0.43998 0
0.0404855 0.161816 0
0.0573416 0.0920297 0
-0.16243 0.00307642 0
-0.676613 0.00352053 0
-0.146312 0.0335669 0
-0.605882 0.0614325 0
-0.675069 0.00719468 0
-2.09853 0.0100507 0
-0.602534 0.120722 0
-1.91773 0.267735 0
-0.146318 0.0366078 0
-0.616181 0.0667791 0
-0.107184 0.0550947 0
-0.444415 0.093624 0
-0.615387 0.128056 0
-1.87931 0.283703 0
-0.43917 0.183489 0
-1.42655 0.406451 0
-0.406273 1.42629 0
-0.282263 1.87971 0
-0.18593 0.437235 0
-0.130537 0.616439 0
-0.266277 1.91692 0
-0.00756106 2.09805 0
-0.12335 0.600721 0
-0.00904614 0.67433 0
-0.094479 0.442304 0
-0.0668649 0.617027 0
-0.0592288 0.0949525 0
-0.0395149 0.15567 0
-0.0618721 0.603985 0
-0.00194652 0.676047 0
-0.0375114 0.137463 0
-0.0032872 0.163224 0
2.09588 0.00806895 0
0.671616 0.00791029 0
1.91728 0.26883 0
0.60096 0.123778 0
0.673397 0.00306829 0
0.155004 0.00403686 0
0.604455 0.0644019 0
0.140564 0.0405436 0
1.87775 0.282916 0
0.617219 0.129693 0
1.42596 0.407092 0
0.434614 0.185881 0
0.617852 0.0680983 0
0.162211 0.0405163 0
0.439913 0.0945593 0
0.091252 0.0573802 0
0.0153475 2.09795 0
0.272349 1.91783 0
0.00118469 0.674469 0
0.117155 0.599845 0
0.288086 1.8804 0
0.40792 1.42763 0
0.12454 0.615829 0
0.183949 0.4361 0
0.00552078 0.676125 0
0.0647187 0.604357 0
-0.000342241 0.163361 0
0.0345998 0.137188 0
0.0695647 0.617577 0
0.0954166 0.442935 0
0.0367194 0.15554 0
0.0581996 0.0948144 0
-0.0743912 0.00909469 0
-0.0503704 0.0113421 0
-0.107905 -0.425946 0
-0.0761401 -0.588283 0
-0.0467415 0.0117421 0
-0.00379385 0.0126141 0
-0.070647 -0.579642 0
-0.00348114 -0.646351 0
-0.186223 -0.415989 0
-0.130412 -0.581647 0
-0.409635 -1.42612 0
-0.28426 -1.87379 0
-0.123707 -0.570253 0
-0.00787294 -0.638147 0
-0.269761 -1.91541 0
-0.0077751 -2.09379 0
-0.108356 -0.0552371 0
-0.444595 -0.0929169 0
-0.146286 -0.0374677 0
-0.615967 -0.0657917 0
-0.439759 -0.183982 0
-1.42641 -0.405492 0
-0.615174 -0.129582 0
-1.8794 -0.281799 0
-0.147131 -0.0343655 0
-0.606045 -0.0603216 0
-0.162446 -0.00427131 0
-0.676505 -0.00233483 0
-0.602893 -0.122223 0
-1.91748 -0.265743 0
-0.67471 -0.00914713 0
-2.09824 -0.00750122 0
1.42599 -0.409561 0
0.415849 -0.18619 0
1.87362 -0.284162 0
0.581459 -0.130364 0
0.425805 -0.107871 0
-0.0092396 -0.074402 0
0.588095 -0.0760909 0
-0.011536 -0.0503749 0
1.91523 -0.269662 0
0.570066 -0.123658 0
2.09356 -0.00764444 0
0.637903 -0.00780533 0
0.579454 -0.070597 0
-0.0119348 -0.0467459 0
0.646106 -0.00341119 0
-0.0128685 -0.00379003 0
0.00452681 -0.162465 0
0.034702 -0.147163 0
0.00256712 -0.676602 0
0.060617 -0.606171 0
0.0378083 -0.14632 0
0.0556945 -0.108411 0
0.0660905 -0.616097 0
0.093292 -0.444781 0
0.00938618 -0.674812 0
0.122527 -0.603025 0
0.00770686 -2.0984 0
0.265987 -1.91767 0
0.129889 -0.615309 0
0.184375 -0.43995 0
0.282045 -1.8796 0
0.405784 -1.42669 0
-0.107157 0.0536521 0
-0.453651 0.0931704 0
-0.065407 0.0618594 0
-0.268052 0.0710552 0
-0.44929 0.181717 0
-1.38041 0.405922 0
-0.259205 0.178653 0
-0.878188 0.379198 0
-0.0683453 0.0599715 0
-0.257211 0.0699862 0
-0.0426804 0.073854 0
-0.0950384 -0.0573928 0
-0.247855 0.173747 0
-0.838733 0.37066 0
-0.0794912 0.177377 0
-0.424608 0.27749 0
1.37651 0.409257 0
0.424256 0.184125 0
0.878064 0.383379 0
0.245324 0.179072 0
0.433166 0.107239 0
-0.00878251 0.0731259 0
0.257482 0.0858236 0
-0.00509677 0.0781933 0
0.836414 0.375862 0
0.234814 0.174842 0
0.419166 0.278973 0
0.0782376 0.165242 0
0.247401 0.084295 0
-0.00144159 0.0758099 0
0.0953749 -0.0337474 0
0.00740164 0.0810923 0
0.0731156 0.0083629 0
0.0781768 0.00454968 0
0.107112 -0.433571 0
0.0856431 -0.258004 0
0.0757858 0.000966725 0
0.0812938 -0.00797153 0
0.0841071 -0.247988 0
-0.0338445 -0.0961677 0
0.184007 -0.42466 0
0.178942 -0.245846 0
0.409025 -1.37688 0
0.383069 -0.878548 0
0.174714 -0.2354 0
0.164991 -0.0790305 0
0.375553 -0.836871 0
0.278415 -0.419737 0
-0.284282 0.41688 0
-0.378101 0.834847 0
-0.153613 0.0810573 0
-0.173009 0.236728 0
-0.385442 0.875419 0
-0.408316 1.37537 0
-0.177269 0.246427 0
-0.186218 0.425187 0
0.0321371 0.0987098 0
-0.0861639 0.248627 0
-0.0845745 0.00822437 0
-0.0754169 -0.000609679 0
-0.0875508 0.257336 0
-0.107457 0.432871 0
-0.0780517 -0.00465083 0
-0.0737612 -0.00814747 0
0.408944 1.37663 0
0.383353 0.878136 0
0.18451 0.424229 0
0.179399 0.245524 0
0.375913 0.836715 0
0.279256 0.419571 0
0.175175 0.234872 0
0.164587 0.0781008 0
0.107243 0.433199 0
0.0859488 0.257569 0
0.0731757 -0.00859494 0
0.0782005 -0.00506226 0
0.0844352 0.247426 0
-0.0340511 0.0951972 0
0.0758226 -0.00135902 0
0.0811399 0.00737293 0
-0.0438529 -0.0699145 0
-0.0940722 0.0516133 0
-0.0692998 -0.0598048 0
-0.258064 -0.0688845 0
-0.0782231 -0.172101 0
-0.4252 -0.280558 0
-0.249081 -0.172729 0
-0.839715 -0.372308 0
-0.0661268 -0.0615568 0
-0.267915 -0.0703317 0
-0.108073 -0.0542251 0
-0.453876 -0.0923417 0
-0.259179 -0.177441 0
-0.879732 -0.380679 0
-0.450072 -0.181686 0
-1.38103 -0.405463 0
0.422248 -0.275631 0
0.0811796 -0.173575 0
0.839124 -0.371834 0
0.247765 -0.174254 0
0.0960684 0.0598088 0
0.0566111 -0.0636469 0
0.256728 -0.0733248 0
0.0803294 -0.0676708 0
0.877758 -0.379111 0
0.257202 -0.178108 0
1.37985 -0.406303 0
0.452532 -0.18338 0
0.266222 -0.0731036 0
0.0494727 -0.0668451 0
0.456576 -0.0935121 0
0.120061 -0.0558547 0
-0.0753763 -0.0442103 0
-0.059257 -0.0694259 0
0.0526649 -0.0993642 0
-0.0715245 -0.258826 0
-0.0613608 -0.0654909 0
-0.0543146 -0.10777 0
-0.072516 -0.267851 0
-0.0928455 -0.453622 0
-0.16566 -0.0831816 0
-0.170426 -0.250302 0
-0.282328 -0.420825 0
-0.373176 -0.836638 0
-0.175411 -0.260021 0
-0.18298 -0.450785 0
-0.381599 -0.87567 0
-0.40526 -1.37922 0
0.0542834 -0.108074 0
0.0615861 -0.0661269 0
0.0923993 -0.453849 0
0.0703623 -0.267891 0
0.0598327 -0.0692996 0
0.0699173 -0.0438518 0
0.0689135 -0.258041 0
-0.0516013 -0.0940532 0
0.181743 -0.450043 0
0.177472 -0.259155 0
0.405511 -1.38098 0
0.380699 -0.879683 0
0.172759 -0.249058 0
0.172112 -0.0782052 0
0.372326 -0.839668 0
0.28055 -0.425162 0
-0.0738122 -0.0426821 0
-0.0598908 -0.0683476 0
0.0574453 -0.095071 0
-0.0699098 -0.257252 0
-0.061777 -0.065409 0
-0.0535259 -0.107162 0
-0.0709772 -0.268093 0
-0.0930545 -0.453709 0
-0.177319 -0.0795224 0
-0.17367 -0.247897 0
-0.277466 -0.424663 0
-0.370609 -0.838803 0
-0.178574 -0.259247 0
-0.181603 -0.449351 0
-0.379146 -0.878262 0
-0.405835 -1.38051 0
-0.0082936 -0.0845871 0
-0.0987751 0.0320867 0
0.000507182 -0.0754295 0
-0.248725 -0.0862153 0
-0.0811232 -0.153657 0
-0.416926 -0.284349 0
-0.236826 -0.173061 0
-0.834929 -0.378189 0
0.00454692 -0.0780643 0
-0.257433 -0.0876028 0
0.00800293 -0.0737719 0
-0.43301 -0.107515 0
-0.246523 -0.177321 0
-0.875501 -0.385531 0
-0.425325 -0.186273 0
-1.3755 -0.408417 0
0.419897 -0.277351 0
0.0865883 -0.163793 0
0.836634 -0.372698 0
0.252346 -0.170713 0
0.101834 0.0614981 0