# vtk DataFile Version 3.0
#This file was generated by the deal.II library on 2020/8/22 at 21:54:03
ASCII
DATASET UNSTRUCTURED_GRID

POINTS 576 double
-1 -1 0
-1 -0.888889 0
-1 -0.777778 0
-1 -0.666667 0
-0.666667 -1 0
-0.666667 -0.888889 0
-0.666667 -0.777778 0
-0.666667 -0.666667 0
-1 -1 0
-0.888889 -1 0
-0.777778 -1 0
-0.666667 -1 0
-1 -0.666667 0
-0.888889 -0.666667 0
-0.777778 -0.666667 0
-0.666667 -0.666667 0
-0.666667 -1 0
-0.666667 -0.888889 0
-0.666667 -0.777778 0
-0.666667 -0.666667 0
-0.333333 -1 0
-0.333333 -0.888889 0
-0.333333 -0.777778 0
-0.333333 -0.666667 0
-0.666667 -1 0
-0.555556 -1 0
-0.444444 -1 0
-0.333333 -1 0
-0.666667 -0.666667 0
-0.555556 -0.666667 0
-0.444444 -0.666667 0
-0.333333 -0.666667 0
-1 -0.666667 0
-1 -0.555556 0
-1 -0.444444 0
-1 -0.333333 0
-0.666667 -0.666667 0
-0.666667 -0.555556 0
-0.666667 -0.444444 0
-0.666667 -0.333333 0
-1 -0.666667 0
-0.888889 -0.666667 0
-0.777778 -0.666667 0
-0.666667 -0.666667 0
-1 -0.333333 0
-0.888889 -0.333333 0
-0.777778 -0.333333 0
-0.666667 -0.333333 0
-0.666667 -0.666667 0
-0.666667 -0.555556 0
-0.666667 -0.444444 0
-0.666667 -0.333333 0
-0.333333 -0.666667 0
-0.333333 -0.555556 0
-0.333333 -0.444444 0
-0.333333 -0.333333 0
-0.666667 -0.666667 0
-0.555556 -0.666667 0
-0.444444 -0.666667 0
-0.333333 -0.666667 0
-0.666667 -0.333333 0
-0.555556 -0.333333 0
-0.444444 -0.333333 0
-0.333333 -0.333333 0
-0.333333 -1 0
-0.333333 -0.888889 0
-0.333333 -0.777778 0
-0.333333 -0.666667 0
-5.55112e-17 -1 0
-5.55112e-17 -0.888889 0
-5.55112e-17 -0.777778 0
-5.55112e-17 -0.666667 0
-0.333333 -1 0
-0.222222 -1 0
-0.111111 -1 0
-5.55112e-17 -1 0
-0.333333 -0.666667 0
-0.222222 -0.666667 0
-0.111111 -0.666667 0
-5.55112e-17 -0.666667 0
-5.55112e-17 -1 0
-5.55112e-17 -0.888889 0
-5.55112e-17 -0.777778 0
-5.55112e-17 -0.666667 0
0.333333 -1 0
0.333333 -0.888889 0
0.333333 -0.777778 0
0.333333 -0.666667 0
-5.55112e-17 -1 0
0.111111 -1 0
0.222222 -1 0
0.333333 -1 0
-5.55112e-17 -0.666667 0
0.111111 -0.666667 0
0.222222 -0.666667 0
0.333333 -0.666667 0
-0.333333 -0.666667 0
-0.333333 -0.555556 0
-0.333333 -0.444444 0
-0.333333 -0.333333 0
-5.55112e-17 -0.666667 0
-5.55112e-17 -0.555556 0
-5.55112e-17 -0.444444 0
-5.55112e-17 -0.333333 0
-0.333333 -0.666667 0
-0.222222 -0.666667 0
-0.111111 -0.666667 0
-5.55112e-17 -0.666667 0
-0.333333 -0.333333 0
-0.222222 -0.333333 0
-0.111111 -0.333333 0
-5.55112e-17 -0.333333 0
-5.55112e-17 -0.666667 0
-5.55112e-17 -0.555556 0
-5.55112e-17 -0.444444 0
-5.55112e-17 -0.333333 0
0.333333 -0.666667 0
0.333333 -0.555556 0
0.333333 -0.444444 0
0.333333 -0.333333 0
-5.55112e-17 -0.666667 0
0.111111 -0.666667 0
0.222222 -0.666667 0
0.333333 -0.666667 0
-5.55112e-17 -0.333333 0
0.111111 -0.333333 0
0.222222 -0.333333 0
0.333333 -0.333333 0
0.333333 -1 0
0.333333 -0.888889 0
0.333333 -0.777778 0
0.333333 -0.666667 0
0.666667 -1 0
0.666667 -0.888889 0
0.666667 -0.777778 0
0.666667 -0.666667 0
0.333333 -1 0
0.444444 -1 0
0.555556 -1 0
0.666667 -1 0
0.333333 -0.666667 0
0.444444 -0.666667 0
0.555556 -0.666667 0
0.666667 -0.666667 0
0.666667 -1 0
0.666667 -0.888889 0
0.666667 -0.777778 0
0.666667 -0.666667 0
1 -1 0
1 -0.888889 0
1 -0.777778 0
1 -0.666667 0
0.666667 -1 0
0.777778 -1 0
0.888889 -1 0
1 -1 0
0.666667 -0.666667 0
0.777778 -0.666667 0
0.888889 -0.666667 0
1 -0.666667 0
0.333333 -0.666667 0
0.333333 -0.555556 0
0.333333 -0.444444 0
0.333333 -0.333333 0
0.666667 -0.666667 0
0.666667 -0.555556 0
0.666667 -0.444444 0
0.666667 -0.333333 0
0.333333 -0.666667 0
0.444444 -0.666667 0
0.555556 -0.666667 0
0.666667 -0.666667 0
0.333333 -0.333333 0
0.444444 -0.333333 0
0.555556 -0.333333 0
0.666667 -0.333333 0
0.666667 -0.666667 0
0.666667 -0.555556 0
0.666667 -0.444444 0
0.666667 -0.333333 0
1 -0.666667 0
1 -0.555556 0
1 -0.444444 0
1 -0.333333 0
0.666667 -0.666667 0
0.777778 -0.666667 0
0.888889 -0.666667 0
1 -0.666667 0
0.666667 -0.333333 0
0.777778 -0.333333 0
0.888889 -0.333333 0
1 -0.333333 0
-1 -0.333333 0
-1 -0.222222 0
-1 -0.111111 0
-1 -5.55112e-17 0
-0.666667 -0.333333 0
-0.666667 -0.222222 0
-0.666667 -0.111111 0
-0.666667 -5.55112e-17 0
-1 -0.333333 0
-0.888889 -0.333333 0
-0.777778 -0.333333 0
-0.666667 -0.333333 0
-1 -5.55112e-17 0
-0.888889 -5.55112e-17 0
-0.777778 -5.55112e-17 0
-0.666667 -5.55112e-17 0
-0.666667 -0.333333 0
-0.666667 -0.222222 0
-0.666667 -0.111111 0
-0.666667 -5.55112e-17 0
-0.333333 -0.333333 0
-0.333333 -0.222222 0
-0.333333 -0.111111 0
-0.333333 -5.55112e-17 0
-0.666667 -0.333333 0
-0.555556 -0.333333 0
-0.444444 -0.333333 0
-0.333333 -0.333333 0
-0.666667 -5.55112e-17 0
-0.555556 -5.55112e-17 0
-0.444444 -5.55112e-17 0
-0.333333 -5.55112e-17 0
-1 -5.55112e-17 0
-1 0.111111 0
-1 0.222222 0
-1 0.333333 0
-0.666667 -5.55112e-17 0
-0.666667 0.111111 0
-0.666667 0.222222 0
-0.666667 0.333333 0
-1 -5.55112e-17 0
-0.888889 -5.55112e-17 0
-0.777778 -5.55112e-17 0
-0.666667 -5.55112e-17 0
-1 0.333333 0
-0.888889 0.333333 0
-0.777778 0.333333 0
-0.666667 0.333333 0
-0.666667 -5.55112e-17 0
-0.666667 0.111111 0
-0.666667 0.222222 0
-0.666667 0.333333 0
-0.333333 -5.55112e-17 0
-0.333333 0.111111 0
-0.333333 0.222222 0
-0.333333 0.333333 0
-0.666667 -5.55112e-17 0
-0.555556 -5.55112e-17 0
-0.444444 -5.55112e-17 0
-0.333333 -5.55112e-17 0
-0.666667 0.333333 0
-0.555556 0.333333 0
-0.444444 0.333333 0
-0.333333 0.333333 0
-0.333333 -0.333333 0
-0.333333 -0.222222 0
-0.333333 -0.111111 0
-0.333333 -5.55112e-17 0
-5.55112e-17 -0.333333 0
-5.55112e-17 -0.222222 0
-5.55112e-17 -0.111111 0
-5.55112e-17 -5.55112e-17 0
-0.333333 -0.333333 0
-0.222222 -0.333333 0
-0.111111 -0.333333 0
-5.55112e-17 -0.333333 0
-0.333333 -5.55112e-17 0
-0.222222 -5.55112e-17 0
-0.111111 -5.55112e-17 0
-5.55112e-17 -5.55112e-17 0
-5.55112e-17 -0.333333 0
-5.55112e-17 -0.222222 0
-5.55112e-17 -0.111111 0
-5.55112e-17 -5.55112e-17 0
0.333333 -0.333333 0
0.333333 -0.222222 0
0.333333 -0.111111 0
0.333333 -5.55112e-17 0
-5.55112e-17 -0.333333 0
0.111111 -0.333333 0
0.222222 -0.333333 0
0.333333 -0.333333 0
-5.55112e-17 -5.55112e-17 0
0.111111 -5.55112e-17 0
0.222222 -5.55112e-17 0
0.333333 -5.55112e-17 0
-0.333333 -5.55112e-17 0
-0.333333 0.111111 0
-0.333333 0.222222 0
-0.333333 0.333333 0
-5.55112e-17 -5.55112e-17 0
-5.55112e-17 0.111111 0
-5.55112e-17 0.222222 0
-5.55112e-17 0.333333 0
-0.333333 -5.55112e-17 0
-0.222222 -5.55112e-17 0
-0.111111 -5.55112e-17 0
-5.55112e-17 -5.55112e-17 0
-0.333333 0.333333 0
-0.222222 0.333333 0
-0.111111 0.333333 0
-5.55112e-17 0.333333 0
-5.55112e-17 -5.55112e-17 0
-5.55112e-17 0.111111 0
-5.55112e-17 0.222222 0
-5.55112e-17 0.333333 0
0.333333 -5.55112e-17 0
0.333333 0.111111 0
0.333333 0.222222 0
0.333333 0.333333 0
-5.55112e-17 -5.55112e-17 0
0.111111 -5.55112e-17 0
0.222222 -5.55112e-17 0
0.333333 -5.55112e-17 0
-5.55112e-17 0.333333 0
0.111111 0.333333 0
0.222222 0.333333 0
0.333333 0.333333 0
0.333333 -0.333333 0
0.333333 -0.222222 0
0.333333 -0.111111 0
0.333333 -5.55112e-17 0
0.666667 -0.333333 0
0.666667 -0.222222 0
0.666667 -0.111111 0
0.666667 -5.55112e-17 0
0.333333 -0.333333 0
0.444444 -0.333333 0
0.555556 -0.333333 0
0.666667 -0.333333 0
0.333333 -5.55112e-17 0
0.444444 -5.55112e-17 0
0.555556 -5.55112e-17 0
0.666667 -5.55112e-17 0
0.666667 -0.333333 0
0.666667 -0.222222 0
0.666667 -0.111111 0
0.666667 -5.55112e-17 0
1 -0.333333 0
1 -0.222222 0
1 -0.111111 0
1 -5.55112e-17 0
0.666667 -0.333333 0
0.777778 -0.333333 0
0.888889 -0.333333 0
1 -0.333333 0
0.666667 -5.55112e-17 0
0.777778 -5.55112e-17 0
0.888889 -5.55112e-17 0
1 -5.55112e-17 0
0.333333 -5.55112e-17 0
0.333333 0.111111 0
0.333333 0.222222 0
0.333333 0.333333 0
0.666667 -5.55112e-17 0
0.666667 0.111111 0
0.666667 0.222222 0
0.666667 0.333333 0
0.333333 -5.55112e-17 0
0.444444 -5.55112e-17 0
0.555556 -5.55112e-17 0
0.666667 -5.55112e-17 0
0.333333 0.333333 0
0.444444 0.333333 0
0.555556 0.333333 0
0.666667 0.333333 0
0.666667 -5.55112e-17 0
0.666667 0.111111 0
0.666667 0.222222 0
0.666667 0.333333 0
1 -5.55112e-17 0
1 0.111111 0
1 0.222222 0
1 0.333333 0
0.666667 -5.55112e-17 0
0.777778 -5.55112e-17 0
0.888889 -5.55112e-17 0
1 -5.55112e-17 0
0.666667 0.333333 0
0.777778 0.333333 0
0.888889 0.333333 0
1 0.333333 0
-1 0.333333 0
-1 0.444444 0
-1 0.555556 0
-1 0.666667 0
-0.666667 0.333333 0
-0.666667 0.444444 0
-0.666667 0.555556 0
-0.666667 0.666667 0
-1 0.333333 0
-0.888889 0.333333 0
-0.777778 0.333333 0
-0.666667 0.333333 0
-1 0.666667 0
-0.888889 0.666667 0
-0.777778 0.666667 0
-0.666667 0.666667 0
-0.666667 0.333333 0
-0.666667 0.444444 0
-0.666667 0.555556 0
-0.666667 0.666667 0
-0.333333 0.333333 0
-0.333333 0.444444 0
-0.333333 0.555556 0
-0.333333 0.666667 0
-0.666667 0.333333 0
-0.555556 0.333333 0
-0.444444 0.333333 0
-0.333333 0.333333 0
-0.666667 0.666667 0
-0.555556 0.666667 0
-0.444444 0.666667 0
-0.333333 0.666667 0
-1 0.666667 0
-1 0.777778 0
-1 0.888889 0
-1 1 0
-0.666667 0.666667 0
-0.666667 0.777778 0
-0.666667 0.888889 0
-0.666667 1 0
-1 0.666667 0
-0.888889 0.666667 0
-0.777778 0.666667 0
-0.666667 0.666667 0
-1 1 0
-0.888889 1 0
-0.777778 1 0
-0.666667 1 0
-0.666667 0.666667 0
-0.666667 0.777778 0
-0.666667 0.888889 0
-0.666667 1 0
-0.333333 0.666667 0
-0.333333 0.777778 0
-0.333333 0.888889 0
-0.333333 1 0
-0.666667 0.666667 0
-0.555556 0.666667 0
-0.444444 0.666667 0
-0.333333 0.666667 0
-0.666667 1 0
-0.555556 1 0
-0.444444 1 0
-0.333333 1 0
-0.333333 0.333333 0
-0.333333 0.444444 0
-0.333333 0.555556 0
-0.333333 0.666667 0
-5.55112e-17 0.333333 0
-5.55112e-17 0.444444 0
-5.55112e-17 0.555556 0
-5.55112e-17 0.666667 0
-0.333333 0.333333 0
-0.222222 0.333333 0
-0.111111 0.333333 0
-5.55112e-17 0.333333 0
-0.333333 0.666667 0
-0.222222 0.666667 0
-0.111111 0.666667 0
-5.55112e-17 0.666667 0
-5.55112e-17 0.333333 0
-5.55112e-17 0.444444 0
-5.55112e-17 0.555556 0
-5.55112e-17 0.666667 0
0.333333 0.333333 0
0.333333 0.444444 0
0.333333 0.555556 0
0.333333 0.666667 0
-5.55112e-17 0.333333 0
0.111111 0.333333 0
0.222222 0.333333 0
0.333333 0.333333 0
-5.55112e-17 0.666667 0
0.111111 0.666667 0
0.222222 0.666667 0
0.333333 0.666667 0
-0.333333 0.666667 0
-0.333333 0.777778 0
-0.333333 0.888889 0
-0.333333 1 0
-5.55112e-17 0.666667 0
-5.55112e-17 0.777778 0
-5.55112e-17 0.888889 0
-5.55112e-17 1 0
-0.333333 0.666667 0
-0.222222 0.666667 0
-0.111111 0.666667 0
-5.55112e-17 0.666667 0
-0.333333 1 0
-0.222222 1 0
-0.111111 1 0
-5.55112e-17 1 0
-5.55112e-17 0.666667 0
-5.55112e-17 0.777778 0
-5.55112e-17 0.888889 0
-5.55112e-17 1 0
0.333333 0.666667 0
0.333333 0.777778 0
0.333333 0.888889 0
0.333333 1 0
-5.55112e-17 0.666667 0
0.111111 0.666667 0
0.222222 0.666667 0
0.333333 0.666667 0
-5.55112e-17 1 0
0.111111 1 0
0.222222 1 0
0.333333 1 0
0.333333 0.333333 0
0.333333 0.444444 0
0.333333 0.555556 0
0.333333 0.666667 0
0.666667 0.333333 0
0.666667 0.444444 0
0.666667 0.555556 0
0.666667 0.666667 0
0.333333 0.333333 0
0.444444 0.333333 0
0.555556 0.333333 0
0.666667 0.333333 0
0.333333 0.666667 0
0.444444 0.666667 0
0.555556 0.666667 0
0.666667 0.666667 0
0.666667 0.333333 0
0.666667 0.444444 0
0.666667 0.555556 0
0.666667 0.666667 0
1 0.333333 0
1 0.444444 0
1 0.555556 0
1 0.666667 0
0.666667 0.333333 0
0.777778 0.333333 0
0.888889 0.333333 0
1 0.333333 0
0.666667 0.666667 0
0.777778 0.666667 0
0.888889 0.666667 0
1 0.666667 0
0.333333 0.666667 0
0.333333 0.777778 0
0.333333 0.888889 0
0.333333 1 0
0.666667 0.666667 0
0.666667 0.777778 0
0.666667 0.888889 0
0.666667 1 0
0.333333 0.666667 0
0.444444 0.666667 0
0.555556 0.666667 0
0.666667 0.666667 0
0.333333 1 0
0.444444 1 0
0.555556 1 0
0.666667 1 0
0.666667 0.666667 0
0.666667 0.777778 0
0.666667 0.888889 0
0.666667 1 0
1 0.666667 0
1 0.777778 0
1 0.888889 0
1 1 0
0.666667 0.666667 0
0.777778 0.666667 0
0.888889 0.666667 0
1 0.666667 0
0.666667 1 0
0.777778 1 0
0.888889 1 0
1 1 0

CELLS 432 1296
2	0	1
2	1	2
2	2	3
2	4	5
2	5	6
2	6	7
2	8	9
2	9	10
2	10	11
2	12	13
2	13	14
2	14	15
2	16	17
2	17	18
2	18	19
2	20	21
2	21	22
2	22	23
2	24	25
2	25	26
2	26	27
2	28	29
2	29	30
2	30	31
2	32	33
2	33	34
2	34	35
2	36	37
2	37	38
2	38	39
2	40	41
2	41	42
2	42	43
2	44	45
2	45	46
2	46	47
2	48	49
2	49	50
2	50	51
2	52	53
2	53	54
2	54	55
2	56	57
2	57	58
2	58	59
2	60	61
2	61	62
2	62	63
2	64	65
2	65	66
2	66	67
2	68	69
2	69	70
2	70	71
2	72	73
2	73	74
2	74	75
2	76	77
2	77	78
2	78	79
2	80	81
2	81	82
2	82	83
2	84	85
2	85	86
2	86	87
2	88	89
2	89	90
2	90	91
2	92	93
2	93	94
2	94	95
2	96	97
2	97	98
2	98	99
2	100	101
2	101	102
2	102	103
2	104	105
2	105	106
2	106	107
2	108	109
2	109	110
2	110	111
2	112	113
2	113	114
2	114	115
2	116	117
2	117	118
2	118	119
2	120	121
2	121	122
2	122	123
2	124	125
2	125	126
2	126	127
2	128	129
2	129	130
2	130	131
2	132	133
2	133	134
2	134	135
2	136	137
2	137	138
2	138	139
2	140	141
2	141	142
2	142	143
2	144	145
2	145	146
2	146	147
2	148	149
2	149	150
2	150	151
2	152	153
2	153	154
2	154	155
2	156	157
2	157	158
2	158	159
2	160	161
2	161	162
2	162	163
2	164	165
2	165	166
2	166	167
2	168	169
2	169	170
2	170	171
2	172	173
2	173	174
2	174	175
2	176	177
2	177	178
2	178	179
2	180	181
2	181	182
2	182	183
2	184	185
2	185	186
2	186	187
2	188	189
2	189	190
2	190	191
2	192	193
2	193	194
2	194	195
2	196	197
2	197	198
2	198	199
2	200	201
2	201	202
2	202	203
2	204	205
2	205	206
2	206	207
2	208	209
2	209	210
2	210	211
2	212	213
2	213	214
2	214	215
2	216	217
2	217	218
2	218	219
2	220	221
2	221	222
2	222	223
2	224	225
2	225	226
2	226	227
2	228	229
2	229	230
2	230	231
2	232	233
2	233	234
2	234	235
2	236	237
2	237	238
2	238	239
2	240	241
2	241	242
2	242	243
2	244	245
2	245	246
2	246	247
2	248	249
2	249	250
2	250	251
2	252	253
2	253	254
2	254	255
2	256	257
2	257	258
2	258	259
2	260	261
2	261	262
2	262	263
2	264	265
2	265	266
2	266	267
2	268	269
2	269	270
2	270	271
2	272	273
2	273	274
2	274	275
2	276	277
2	277	278
2	278	279
2	280	281
2	281	282
2	282	283
2	284	285
2	285	286
2	286	287
2	288	289
2	289	290
2	290	291
2	292	293
2	293	294
2	294	295
2	296	297
2	297	298
2	298	299
2	300	301
2	301	302
2	302	303
2	304	305
2	305	306
2	306	307
2	308	309
2	309	310
2	310	311
2	312	313
2	313	314
2	314	315
2	316	317
2	317	318
2	318	319
2	320	321
2	321	322
2	322	323
2	324	325
2	325	326
2	326	327
2	328	329
2	329	330
2	330	331
2	332	333
2	333	334
2	334	335
2	336	337
2	337	338
2	338	339
2	340	341
2	341	342
2	342	343
2	344	345
2	345	346
2	346	347
2	348	349
2	349	350
2	350	351
2	352	353
2	353	354
2	354	355
2	356	357
2	357	358
2	358	359
2	360	361
2	361	362
2	362	363
2	364	365
2	365	366
2	366	367
2	368	369
2	369	370
2	370	371
2	372	373
2	373	374
2	374	375
2	376	377
2	377	378
2	378	379
2	380	381
2	381	382
2	382	383
2	384	385
2	385	386
2	386	387
2	388	389
2	389	390
2	390	391
2	392	393
2	393	394
2	394	395
2	396	397
2	397	398
2	398	399
2	400	401
2	401	402
2	402	403
2	404	405
2	405	406
2	406	407
2	408	409
2	409	410
2	410	411
2	412	413
2	413	414
2	414	415
2	416	417
2	417	418
2	418	419
2	420	421
2	421	422
2	422	423
2	424	425
2	425	426
2	426	427
2	428	429
2	429	430
2	430	431
2	432	433
2	433	434
2	434	435
2	436	437
2	437	438
2	438	439
2	440	441
2	441	442
2	442	443
2	444	445
2	445	446
2	446	447
2	448	449
2	449	450
2	450	451
2	452	453
2	453	454
2	454	455
2	456	457
2	457	458
2	458	459
2	460	461
2	461	462
2	462	463
2	464	465
2	465	466
2	466	467
2	468	469
2	469	470
2	470	471
2	472	473
2	473	474
2	474	475
2	476	477
2	477	478
2	478	479
2	480	481
2	481	482
2	482	483
2	484	485
2	485	486
2	486	487
2	488	489
2	489	490
2	490	491
2	492	493
2	493	494
2	494	495
2	496	497
2	497	498
2	498	499
2	500	501
2	501	502
2	502	503
2	504	505
2	505	506
2	506	507
2	508	509
2	509	510
2	510	511
2	512	513
2	513	514
2	514	515
2	516	517
2	517	518
2	518	519
2	520	521
2	521	522
2	522	523
2	524	525
2	525	526
2	526	527
2	528	529
2	529	530
2	530	531
2	532	533
2	533	534
2	534	535
2	536	537
2	537	538
2	538	539
2	540	541
2	541	542
2	542	543
2	544	545
2	545	546
2	546	547
2	548	549
2	549	550
2	550	551
2	552	553
2	553	554
2	554	555
2	556	557
2	557	558
2	558	559
2	560	561
2	561	562
2	562	563
2	564	565
2	565	566
2	566	567
2	568	569
2	569	570
2	570	571
2	572	573
2	573	574
2	574	575

CELL_TYPES 432
 3 3 3 3 3 3 3 3 3 3 3 3 3 3 3 3 3 3 3 3 3 3 3 3 3 3 3 3 3 3 3 3 3 3 3 3 3 3 3 3 3 3 3 3 3 3 3 3 3 3 3 3 3 3 3 3 3 3 3 3 3 3 3 3 3 3 3 3 3 3 3 3 3 3 3 3 3 3 3 3 3 3 3 3 3 3 3 3 3 3 3 3 3 3 3 3 3 3 3 3 3 3 3 3 3 3 3 3 3 3 3 3 3 3 3 3 3 3 3 3 3 3 3 3 3 3 3 3 3 3 3 3 3 3 3 3 3 3 3 3 3 3 3 3 3 3 3 3 3 3 3 3 3 3 3 3 3 3 3 3 3 3 3 3 3 3 3 3 3 3 3 3 3 3 3 3 3 3 3 3 3 3 3 3 3 3 3 3 3 3 3 3 3 3 3 3 3 3 3 3 3 3 3 3 3 3 3 3 3 3 3 3 3 3 3 3 3 3 3 3 3 3 3 3 3 3 3 3 3 3 3 3 3 3 3 3 3 3 3 3 3 3 3 3 3 3 3 3 3 3 3 3 3 3 3 3 3 3 3 3 3 3 3 3 3 3 3 3 3 3 3 3 3 3 3 3 3 3 3 3 3 3 3 3 3 3 3 3 3 3 3 3 3 3 3 3 3 3 3 3 3 3 3 3 3 3 3 3 3 3 3 3 3 3 3 3 3 3 3 3 3 3 3 3 3 3 3 3 3 3 3 3 3 3 3 3 3 3 3 3 3 3 3 3 3 3 3 3 3 3 3 3 3 3 3 3 3 3 3 3 3 3 3 3 3 3 3 3 3 3 3 3 3 3 3 3 3 3 3 3 3 3 3 3 3 3 3 3 3 3 3 3 3 3 3 3 3 3 3 3 3 3 3 3 3 3 3 3 3 3 3 3 3 3 3 3 3 3 3 3 3 3 3 3 3 3 3 3 3 3 3 3
POINT_DATA 576
SCALARS u_hat double 1
LOOKUP_TABLE default
-0.0248371 -0.0226553 -0.026238 -0.0198203 -0.0709129 0.0458735 0.24636 1.0422 -0.0241285 -0.0194141 -0.0201444 -0.0134266 -0.0756588 0.0405317 0.245771 1.04002 -0.0709129 0.0458735 0.24636 1.0422 -0.0703049 0.0482404 0.248758 1.04639 -0.0156099 -0.0110581 -0.0101903 -0.0142158 0.915756 1.80949 1.81325 0.913577 -0.0230093 -0.0186103 -0.0185619 -0.0215587 0.910716 1.81072 1.80778 0.915706 -0.0756588 0.0405317 0.245771 1.04002 -0.0794902 0.0429748 0.24365 1.04475 0.910716 1.81072 1.80778 0.915706 0.914081 1.81355 1.81178 0.91743 0.915756 1.80949 1.81325 0.913577 0.914437 1.80964 1.81252 0.914164 -0.0703049 0.0482404 0.248758 1.04639 -0.0188771 -0.0140248 -0.015962 -0.00543318 -0.0113583 -0.0175485 -0.0150484 -0.0180553 1.04511 0.249605 0.0491588 -0.0650456 -0.0188771 -0.0140248 -0.015962 -0.00543318 -0.067857 0.0540849 0.254123 1.05453 -0.0181117 -0.0139001 -0.0152522 -0.00739418 -0.0648279 0.0510662 0.253994 1.05174 0.914081 1.81355 1.81178 0.91743 -0.00926088 -0.00137082 -0.00108343 -0.00845078 1.04511 0.249605 0.0491588 -0.0650456 1.04867 0.248469 0.0508864 -0.0675547 -0.00926088 -0.00137082 -0.00108343 -0.00845078 0.924218 1.81872 1.82092 0.921915 -0.0648279 0.0510662 0.253994 1.05174 -0.0668608 0.0531492 0.254118 1.05568 -0.067857 0.0540849 0.254123 1.05453 -0.0571536 0.0577309 0.261906 1.05517 -0.00992771 -0.0045246 -0.00226278 -0.00452582 0.925488 1.8195 1.82424 0.925888 -0.0571536 0.0577309 0.261906 1.05517 -9.5827e-07 0.000175141 0.00111636 0.00390829 -0.00133461 -0.00592337 -0.00101528 -0.00267469 1.05737 0.263028 0.0638999 -0.0515953 0.924218 1.81872 1.82092 0.921915 0.930928 1.82382 1.82685 0.926532 0.925488 1.8195 1.82424 0.925888 0.92518 1.82137 1.82487 0.927028 0.930928 1.82382 1.82685 0.926532 0.00355779 0.00710645 0.00710645 0.00355779 1.05737 0.263028 0.0638999 -0.0515953 1.05931 0.263288 0.0642745 -0.0527076 -0.0190255 -0.024436 -0.0206328 -0.0224099 1.04196 0.246259 0.0454763 -0.0681831 -0.0794902 0.0429748 0.24365 1.04475 -0.0231756 -0.0181912 -0.0197905 -0.0087883 1.04196 0.246259 0.0454763 -0.0681831 1.04795 0.248295 0.049391 -0.0684948 0.914437 1.80964 1.81252 0.914164 -0.012616 -0.00417183 -0.00329441 -0.0100674 -0.0223535 -0.0169336 -0.0170355 -0.00843904 -0.0684005 0.0481307 0.251007 1.04907 -0.0231756 -0.0181912 -0.0197905 -0.0087883 -0.0673847 0.0513695 0.252255 1.05035 -0.0684005 0.0481307 0.251007 1.04907 -0.0691557 0.0515139 0.251471 1.05412 -0.012616 -0.00417183 -0.00329441 -0.0100674 0.91804 1.81801 1.81676 0.9229 1.04795 0.248295 0.049391 -0.0684948 -0.00459094 -0.0146888 -0.0120946 -0.0162099 1.04867 0.248469 0.0508864 -0.0675547 -0.00620644 -0.0157298 -0.012592 -0.0162108 -0.00459094 -0.0146888 -0.0120946 -0.0162099 1.05528 0.25617 0.056917 -0.0630293 -0.0668608 0.0531492 0.254118 1.05568 -0.014608 -0.0108218 -0.0104616 -0.00373469 -0.0691557 0.0515139 0.251471 1.05412 -0.014674 -0.0112405 -0.0113347 -0.00479066 -0.00620644 -0.0157298 -0.012592 -0.0162108 1.05228 0.25475 0.0550994 -0.0634796 -0.014674 -0.0112405 -0.0113347 -0.00479066 -0.0074635 -0.00766029 -0.00799976 -0.00542865 -0.014608 -0.0108218 -0.0104616 -0.00373469 -0.00858863 -0.00835321 -0.00830356 -0.00543024 1.05528 0.25617 0.056917 -0.0630293 1.05698 0.262477 0.0603743 -0.0554807 0.92518 1.82137 1.82487 0.927028 -0.00564503 -0.000396454 0.00107538 -0.00142891 1.05698 0.262477 0.0603743 -0.0554807 0.00390829 0.00111636 0.000175141 -9.5827e-07 1.05931 0.263288 0.0642745 -0.0527076 0.000391813 -0.00315668 -0.000819945 -0.00144281 -0.0074635 -0.00766029 -0.00799976 -0.00542865 -0.00306947 -0.00367613 -0.00428371 -0.00219853 -0.00564503 -0.000396454 0.00107538 -0.00142891 -0.00658696 -0.00547065 -0.00437033 -0.0032764 -0.00306947 -0.00367613 -0.00428371 -0.00219853 1.1961e-05 6.57999e-07 4.89896e-09 -6.65945e-07 0.000391813 -0.00315668 -0.000819945 -0.00144281 -0.00326382 -0.00220866 -0.00110689 -1.39291e-05 -0.0112964 -0.00481368 -0.00311211 -0.00489515 0.917536 1.81994 1.81914 0.928708 -0.0673847 0.0513695 0.252255 1.05035 -0.0601823 0.0573927 0.258669 1.05514 0.917536 1.81994 1.81914 0.928708 0.919632 1.82063 1.82055 0.928395 0.91804 1.81801 1.81676 0.9229 0.923673 1.82417 1.82157 0.929667 -0.00269632 -0.00632718 -0.00193237 -0.00204648 1.05297 0.262485 0.0616396 -0.049316 -0.0601823 0.0573927 0.258669 1.05514 -9.5827e-07 0.000175141 0.00111636 0.00390829 1.05297 0.262485 0.0616396 -0.049316 1.0587 0.26098 0.0640461 -0.0541475 0.923673 1.82417 1.82157 0.929667 0.00355779 0.00710645 0.00710645 0.00355779 0.919632 1.82063 1.82055 0.928395 -0.0068523 -0.00169318 -0.000347718 -0.00252487 1.05228 0.25475 0.0550994 -0.0634796 1.05482 0.26073 0.0586357 -0.0564359 -0.0068523 -0.00169318 -0.000347718 -0.00252487 -0.00658771 -0.00567136 -0.00467257 -0.00357995 -0.00858863 -0.00835321 -0.00830356 -0.00543024 -0.00424063 -0.00453712 -0.00481684 -0.00252626 1.0587 0.26098 0.0640461 -0.0541475 -0.000510736 -0.00416305 -0.00109365 -0.00173384 1.05482 0.26073 0.0586357 -0.0564359 0.00390829 0.00111636 0.000175141 -9.5827e-07 -0.000510736 -0.00416305 -0.00109365 -0.00173384 -0.00355967 -0.00243881 -0.00120611 -2.19615e-05 -0.00424063 -0.00453712 -0.00481684 -0.00252626 1.1961e-05 6.57999e-07 4.89896e-09 -6.65945e-07 -0.00658771 -0.00567136 -0.00467257 -0.00357995 -0.00327883 -0.00277918 -0.00225658 -0.0017078 -0.00658696 -0.00547065 -0.00437033 -0.0032764 -0.00358385 -0.00291598 -0.00229522 -0.0017083 -0.00327883 -0.00277918 -0.00225658 -0.0017078 1.25916e-10 1.25566e-12 -1.60419e-13 -8.83026e-12 -0.00326382 -0.00220866 -0.00110689 -1.39291e-05 -0.0017083 -0.0011417 -0.000578789 -6.13419e-07 -0.00355967 -0.00243881 -0.00120611 -2.19615e-05 -0.00170779 -0.00113969 -0.000562966 4.73124e-08 -0.00358385 -0.00291598 -0.00229522 -0.0017083 1.25916e-10 1.25566e-12 -1.60419e-13 -8.83026e-12 -0.00170779 -0.00113969 -0.000562966 4.73124e-08 4.98756e-18 -8.24199e-22 -7.01614e-21 -3.66883e-19 -0.0017083 -0.0011417 -0.000578789 -6.13419e-07 4.98756e-18 -8.24199e-22 -7.01614e-21 -3.66883e-19 
