# vtk DataFile Version 3.0
#This file was generated by the deal.II library on 2020/8/22 at 21:53:34
ASCII
DATASET UNSTRUCTURED_GRID

POINTS 776 double
0 0 0
0 0.5 0
0.5 0 0
0.5 0.5 0
0 0 0
0.5 0 0
0 0.5 0
0.5 0.5 0
0.5 0 0
0.5 0.5 0
1 0 0
1 0.5 0
0.5 0 0
1 0 0
0.5 0.5 0
1 0.5 0
0 0.5 0
0 1 0
0.5 0.5 0
0.5 1 0
0 0.5 0
0.5 0.5 0
0 1 0
0.5 1 0
0.5 0.5 0
0.5 1 0
1 0.5 0
1 1 0
0.5 0.5 0
1 0.5 0
0.5 1 0
1 1 0
-1 -0.25 0
-1 0 0
-0.75 -0.25 0
-0.75 0 0
-1 -0.25 0
-0.75 -0.25 0
-1 0 0
-0.75 0 0
-0.75 -0.25 0
-0.75 0 0
-0.5 -0.25 0
-0.5 0 0
-0.75 -0.25 0
-0.5 -0.25 0
-0.75 0 0
-0.5 0 0
-0.5 -0.25 0
-0.5 0 0
-0.25 -0.25 0
-0.25 0 0
-0.5 -0.25 0
-0.25 -0.25 0
-0.5 0 0
-0.25 0 0
-0.25 -0.25 0
-0.25 0 0
0 -0.25 0
0 0 0
-0.25 -0.25 0
0 -0.25 0
-0.25 0 0
0 0 0
-1 0 0
-1 0.25 0
-0.75 0 0
-0.75 0.25 0
-1 0 0
-0.75 0 0
-1 0.25 0
-0.75 0.25 0
-0.75 0 0
-0.75 0.25 0
-0.5 0 0
-0.5 0.25 0
-0.75 0 0
-0.5 0 0
-0.75 0.25 0
-0.5 0.25 0
-1 0.25 0
-1 0.5 0
-0.75 0.25 0
-0.75 0.5 0
-1 0.25 0
-0.75 0.25 0
-1 0.5 0
-0.75 0.5 0
-0.25 0 0
-0.25 0.25 0
0 0 0
0 0.25 0
-0.25 0 0
0 0 0
-0.25 0.25 0
0 0.25 0
-0.25 0.25 0
-0.25 0.5 0
0 0.25 0
0 0.5 0
-0.25 0.25 0
0 0.25 0
-0.25 0.5 0
0 0.5 0
-1 -1 0
-1 -0.75 0
-0.75 -1 0
-0.75 -0.75 0
-1 -1 0
-0.75 -1 0
-1 -0.75 0
-0.75 -0.75 0
-0.75 -1 0
-0.75 -0.75 0
-0.5 -1 0
-0.5 -0.75 0
-0.75 -1 0
-0.5 -1 0
-0.75 -0.75 0
-0.5 -0.75 0
-1 -0.75 0
-1 -0.5 0
-0.75 -0.75 0
-0.75 -0.5 0
-1 -0.75 0
-0.75 -0.75 0
-1 -0.5 0
-0.75 -0.5 0
-0.5 -1 0
-0.5 -0.75 0
-0.25 -1 0
-0.25 -0.75 0
-0.5 -1 0
-0.25 -1 0
-0.5 -0.75 0
-0.25 -0.75 0
-0.25 -1 0
-0.25 -0.75 0
0 -1 0
0 -0.75 0
-0.25 -1 0
0 -1 0
-0.25 -0.75 0
0 -0.75 0
-0.25 -0.75 0
-0.25 -0.5 0
0 -0.75 0
0 -0.5 0
-0.25 -0.75 0
0 -0.75 0
-0.25 -0.5 0
0 -0.5 0
0 -1 0
0 -0.75 0
0.25 -1 0
0.25 -0.75 0
0 -1 0
0.25 -1 0
0 -0.75 0
0.25 -0.75 0
0.25 -1 0
0.25 -0.75 0
0.5 -1 0
0.5 -0.75 0
0.25 -1 0
0.5 -1 0
0.25 -0.75 0
0.5 -0.75 0
0 -0.75 0
0 -0.5 0
0.25 -0.75 0
0.25 -0.5 0
0 -0.75 0
0.25 -0.75 0
0 -0.5 0
0.25 -0.5 0
0.5 -1 0
0.5 -0.75 0
0.75 -1 0
0.75 -0.75 0
0.5 -1 0
0.75 -1 0
0.5 -0.75 0
0.75 -0.75 0
0.75 -1 0
0.75 -0.75 0
1 -1 0
1 -0.75 0
0.75 -1 0
1 -1 0
0.75 -0.75 0
1 -0.75 0
0.75 -0.75 0
0.75 -0.5 0
1 -0.75 0
1 -0.5 0
0.75 -0.75 0
1 -0.75 0
0.75 -0.5 0
1 -0.5 0
0 -0.5 0
0 -0.25 0
0.25 -0.5 0
0.25 -0.25 0
0 -0.5 0
0.25 -0.5 0
0 -0.25 0
0.25 -0.25 0
0 -0.25 0
0 0 0
0.25 -0.25 0
0.25 0 0
0 -0.25 0
0.25 -0.25 0
0 0 0
0.25 0 0
0.25 -0.25 0
0.25 0 0
0.5 -0.25 0
0.5 0 0
0.25 -0.25 0
0.5 -0.25 0
0.25 0 0
0.5 0 0
0.75 -0.5 0
0.75 -0.25 0
1 -0.5 0
1 -0.25 0
0.75 -0.5 0
1 -0.5 0
0.75 -0.25 0
1 -0.25 0
0.5 -0.25 0
0.5 0 0
0.75 -0.25 0
0.75 0 0
0.5 -0.25 0
0.75 -0.25 0
0.5 0 0
0.75 0 0
0.75 -0.25 0
0.75 0 0
1 -0.25 0
1 0 0
0.75 -0.25 0
1 -0.25 0
0.75 0 0
1 0 0
-1 0.5 0
-1 0.75 0
-0.75 0.5 0
-0.75 0.75 0
-1 0.5 0
-0.75 0.5 0
-1 0.75 0
-0.75 0.75 0
-1 0.75 0
-1 1 0
-0.75 0.75 0
-0.75 1 0
-1 0.75 0
-0.75 0.75 0
-1 1 0
-0.75 1 0
-0.75 0.75 0
-0.75 1 0
-0.5 0.75 0
-0.5 1 0
-0.75 0.75 0
-0.5 0.75 0
-0.75 1 0
-0.5 1 0
-0.25 0.5 0
-0.25 0.75 0
0 0.5 0
0 0.75 0
-0.25 0.5 0
0 0.5 0
-0.25 0.75 0
0 0.75 0
-0.5 0.75 0
-0.5 1 0
-0.25 0.75 0
-0.25 1 0
-0.5 0.75 0
-0.25 0.75 0
-0.5 1 0
-0.25 1 0
-0.25 0.75 0
-0.25 1 0
0 0.75 0
0 1 0
-0.25 0.75 0
0 0.75 0
-0.25 1 0
0 1 0
-1 -0.5 0
-1 -0.375 0
-0.875 -0.5 0
-0.875 -0.375 0
-1 -0.5 0
-0.875 -0.5 0
-1 -0.375 0
-0.875 -0.375 0
-0.875 -0.5 0
-0.875 -0.375 0
-0.75 -0.5 0
-0.75 -0.375 0
-0.875 -0.5 0
-0.75 -0.5 0
-0.875 -0.375 0
-0.75 -0.375 0
-1 -0.375 0
-1 -0.25 0
-0.875 -0.375 0
-0.875 -0.25 0
-1 -0.375 0
-0.875 -0.375 0
-1 -0.25 0
-0.875 -0.25 0
-0.875 -0.375 0
-0.875 -0.25 0
-0.75 -0.375 0
-0.75 -0.25 0
-0.875 -0.375 0
-0.75 -0.375 0
-0.875 -0.25 0
-0.75 -0.25 0
-0.75 -0.5 0
-0.75 -0.375 0
-0.625 -0.5 0
-0.625 -0.375 0
-0.75 -0.5 0
-0.625 -0.5 0
-0.75 -0.375 0
-0.625 -0.375 0
-0.625 -0.5 0
-0.625 -0.375 0
-0.5 -0.5 0
-0.5 -0.375 0
-0.625 -0.5 0
-0.5 -0.5 0
-0.625 -0.375 0
-0.5 -0.375 0
-0.75 -0.375 0
-0.75 -0.25 0
-0.625 -0.375 0
-0.625 -0.25 0
-0.75 -0.375 0
-0.625 -0.375 0
-0.75 -0.25 0
-0.625 -0.25 0
-0.625 -0.375 0
-0.625 -0.25 0
-0.5 -0.375 0
-0.5 -0.25 0
-0.625 -0.375 0
-0.5 -0.375 0
-0.625 -0.25 0
-0.5 -0.25 0
-0.5 -0.5 0
-0.5 -0.375 0
-0.375 -0.5 0
-0.375 -0.375 0
-0.5 -0.5 0
-0.375 -0.5 0
-0.5 -0.375 0
-0.375 -0.375 0
-0.375 -0.5 0
-0.375 -0.375 0
-0.25 -0.5 0
-0.25 -0.375 0
-0.375 -0.5 0
-0.25 -0.5 0
-0.375 -0.375 0
-0.25 -0.375 0
-0.5 -0.375 0
-0.5 -0.25 0
-0.375 -0.375 0
-0.375 -0.25 0
-0.5 -0.375 0
-0.375 -0.375 0
-0.5 -0.25 0
-0.375 -0.25 0
-0.375 -0.375 0
-0.375 -0.25 0
-0.25 -0.375 0
-0.25 -0.25 0
-0.375 -0.375 0
-0.25 -0.375 0
-0.375 -0.25 0
-0.25 -0.25 0
-0.25 -0.5 0
-0.25 -0.375 0
-0.125 -0.5 0
-0.125 -0.375 0
-0.25 -0.5 0
-0.125 -0.5 0
-0.25 -0.375 0
-0.125 -0.375 0
-0.125 -0.5 0
-0.125 -0.375 0
0 -0.5 0
0 -0.375 0
-0.125 -0.5 0
0 -0.5 0
-0.125 -0.375 0
0 -0.375 0
-0.25 -0.375 0
-0.25 -0.25 0
-0.125 -0.375 0
-0.125 -0.25 0
-0.25 -0.375 0
-0.125 -0.375 0
-0.25 -0.25 0
-0.125 -0.25 0
-0.125 -0.375 0
-0.125 -0.25 0
0 -0.375 0
0 -0.25 0
-0.125 -0.375 0
0 -0.375 0
-0.125 -0.25 0
0 -0.25 0
-0.75 0.25 0
-0.75 0.375 0
-0.625 0.25 0
-0.625 0.375 0
-0.75 0.25 0
-0.625 0.25 0
-0.75 0.375 0
-0.625 0.375 0
-0.625 0.25 0
-0.625 0.375 0
-0.5 0.25 0
-0.5 0.375 0
-0.625 0.25 0
-0.5 0.25 0
-0.625 0.375 0
-0.5 0.375 0
-0.75 0.375 0
-0.75 0.5 0
-0.625 0.375 0
-0.625 0.5 0
-0.75 0.375 0
-0.625 0.375 0
-0.75 0.5 0
-0.625 0.5 0
-0.625 0.375 0
-0.625 0.5 0
-0.5 0.375 0
-0.5 0.5 0
-0.625 0.375 0
-0.5 0.375 0
-0.625 0.5 0
-0.5 0.5 0
-0.5 0 0
-0.5 0.125 0
-0.375 0 0
-0.375 0.125 0
-0.5 0 0
-0.375 0 0
-0.5 0.125 0
-0.375 0.125 0
-0.375 0 0
-0.375 0.125 0
-0.25 0 0
-0.25 0.125 0
-0.375 0 0
-0.25 0 0
-0.375 0.125 0
-0.25 0.125 0
-0.5 0.125 0
-0.5 0.25 0
-0.375 0.125 0
-0.375 0.25 0
-0.5 0.125 0
-0.375 0.125 0
-0.5 0.25 0
-0.375 0.25 0
-0.375 0.125 0
-0.375 0.25 0
-0.25 0.125 0
-0.25 0.25 0
-0.375 0.125 0
-0.25 0.125 0
-0.375 0.25 0
-0.25 0.25 0
-0.5 0.25 0
-0.5 0.375 0
-0.375 0.25 0
-0.375 0.375 0
-0.5 0.25 0
-0.375 0.25 0
-0.5 0.375 0
-0.375 0.375 0
-0.375 0.25 0
-0.375 0.375 0
-0.25 0.25 0
-0.25 0.375 0
-0.375 0.25 0
-0.25 0.25 0
-0.375 0.375 0
-0.25 0.375 0
-0.5 0.375 0
-0.5 0.5 0
-0.375 0.375 0
-0.375 0.5 0
-0.5 0.375 0
-0.375 0.375 0
-0.5 0.5 0
-0.375 0.5 0
-0.375 0.375 0
-0.375 0.5 0
-0.25 0.375 0
-0.25 0.5 0
-0.375 0.375 0
-0.25 0.375 0
-0.375 0.5 0
-0.25 0.5 0
-0.75 -0.75 0
-0.75 -0.625 0
-0.625 -0.75 0
-0.625 -0.625 0
-0.75 -0.75 0
-0.625 -0.75 0
-0.75 -0.625 0
-0.625 -0.625 0
-0.625 -0.75 0
-0.625 -0.625 0
-0.5 -0.75 0
-0.5 -0.625 0
-0.625 -0.75 0
-0.5 -0.75 0
-0.625 -0.625 0
-0.5 -0.625 0
-0.75 -0.625 0
-0.75 -0.5 0
-0.625 -0.625 0
-0.625 -0.5 0
-0.75 -0.625 0
-0.625 -0.625 0
-0.75 -0.5 0
-0.625 -0.5 0
-0.625 -0.625 0
-0.625 -0.5 0
-0.5 -0.625 0
-0.5 -0.5 0
-0.625 -0.625 0
-0.5 -0.625 0
-0.625 -0.5 0
-0.5 -0.5 0
-0.5 -0.75 0
-0.5 -0.625 0
-0.375 -0.75 0
-0.375 -0.625 0
-0.5 -0.75 0
-0.375 -0.75 0
-0.5 -0.625 0
-0.375 -0.625 0
-0.375 -0.75 0
-0.375 -0.625 0
-0.25 -0.75 0
-0.25 -0.625 0
-0.375 -0.75 0
-0.25 -0.75 0
-0.375 -0.625 0
-0.25 -0.625 0
-0.5 -0.625 0
-0.5 -0.5 0
-0.375 -0.625 0
-0.375 -0.5 0
-0.5 -0.625 0
-0.375 -0.625 0
-0.5 -0.5 0
-0.375 -0.5 0
-0.375 -0.625 0
-0.375 -0.5 0
-0.25 -0.625 0
-0.25 -0.5 0
-0.375 -0.625 0
-0.25 -0.625 0
-0.375 -0.5 0
-0.25 -0.5 0
0.25 -0.75 0
0.25 -0.625 0
0.375 -0.75 0
0.375 -0.625 0
0.25 -0.75 0
0.375 -0.75 0
0.25 -0.625 0
0.375 -0.625 0
0.375 -0.75 0
0.375 -0.625 0
0.5 -0.75 0
0.5 -0.625 0
0.375 -0.75 0
0.5 -0.75 0
0.375 -0.625 0
0.5 -0.625 0
0.25 -0.625 0
0.25 -0.5 0
0.375 -0.625 0
0.375 -0.5 0
0.25 -0.625 0
0.375 -0.625 0
0.25 -0.5 0
0.375 -0.5 0
0.375 -0.625 0
0.375 -0.5 0
0.5 -0.625 0
0.5 -0.5 0
0.375 -0.625 0
0.5 -0.625 0
0.375 -0.5 0
0.5 -0.5 0
0.5 -0.75 0
0.5 -0.625 0
0.625 -0.75 0
0.625 -0.625 0
0.5 -0.75 0
0.625 -0.75 0
0.5 -0.625 0
0.625 -0.625 0
0.625 -0.75 0
0.625 -0.625 0
0.75 -0.75 0
0.75 -0.625 0
0.625 -0.75 0
0.75 -0.75 0
0.625 -0.625 0
0.75 -0.625 0
0.5 -0.625 0
0.5 -0.5 0
0.625 -0.625 0
0.625 -0.5 0
0.5 -0.625 0
0.625 -0.625 0
0.5 -0.5 0
0.625 -0.5 0
0.625 -0.625 0
0.625 -0.5 0
0.75 -0.625 0
0.75 -0.5 0
0.625 -0.625 0
0.75 -0.625 0
0.625 -0.5 0
0.75 -0.5 0
0.25 -0.5 0
0.25 -0.375 0
0.375 -0.5 0
0.375 -0.375 0
0.25 -0.5 0
0.375 -0.5 0
0.25 -0.375 0
0.375 -0.375 0
0.375 -0.5 0
0.375 -0.375 0
0.5 -0.5 0
0.5 -0.375 0
0.375 -0.5 0
0.5 -0.5 0
0.375 -0.375 0
0.5 -0.375 0
0.25 -0.375 0
0.25 -0.25 0
0.375 -0.375 0
0.375 -0.25 0
0.25 -0.375 0
0.375 -0.375 0
0.25 -0.25 0
0.375 -0.25 0
0.375 -0.375 0
0.375 -0.25 0
0.5 -0.375 0
0.5 -0.25 0
0.375 -0.375 0
0.5 -0.375 0
0.375 -0.25 0
0.5 -0.25 0
0.5 -0.5 0
0.5 -0.375 0
0.625 -0.5 0
0.625 -0.375 0
0.5 -0.5 0
0.625 -0.5 0
0.5 -0.375 0
0.625 -0.375 0
0.625 -0.5 0
0.625 -0.375 0
0.75 -0.5 0
0.75 -0.375 0
0.625 -0.5 0
0.75 -0.5 0
0.625 -0.375 0
0.75 -0.375 0
0.5 -0.375 0
0.5 -0.25 0
0.625 -0.375 0
0.625 -0.25 0
0.5 -0.375 0
0.625 -0.375 0
0.5 -0.25 0
0.625 -0.25 0
0.625 -0.375 0
0.625 -0.25 0
0.75 -0.375 0
0.75 -0.25 0
0.625 -0.375 0
0.75 -0.375 0
0.625 -0.25 0
0.75 -0.25 0
-0.75 0.5 0
-0.75 0.625 0
-0.625 0.5 0
-0.625 0.625 0
-0.75 0.5 0
-0.625 0.5 0
-0.75 0.625 0
-0.625 0.625 0
-0.625 0.5 0
-0.625 0.625 0
-0.5 0.5 0
-0.5 0.625 0
-0.625 0.5 0
-0.5 0.5 0
-0.625 0.625 0
-0.5 0.625 0
-0.75 0.625 0
-0.75 0.75 0
-0.625 0.625 0
-0.625 0.75 0
-0.75 0.625 0
-0.625 0.625 0
-0.75 0.75 0
-0.625 0.75 0
-0.625 0.625 0
-0.625 0.75 0
-0.5 0.625 0
-0.5 0.75 0
-0.625 0.625 0
-0.5 0.625 0
-0.625 0.75 0
-0.5 0.75 0
-0.5 0.5 0
-0.5 0.625 0
-0.375 0.5 0
-0.375 0.625 0
-0.5 0.5 0
-0.375 0.5 0
-0.5 0.625 0
-0.375 0.625 0
-0.375 0.5 0
-0.375 0.625 0
-0.25 0.5 0
-0.25 0.625 0
-0.375 0.5 0
-0.25 0.5 0
-0.375 0.625 0
-0.25 0.625 0
-0.5 0.625 0
-0.5 0.75 0
-0.375 0.625 0
-0.375 0.75 0
-0.5 0.625 0
-0.375 0.625 0
-0.5 0.75 0
-0.375 0.75 0
-0.375 0.625 0
-0.375 0.75 0
-0.25 0.625 0
-0.25 0.75 0
-0.375 0.625 0
-0.25 0.625 0
-0.375 0.75 0
-0.25 0.75 0

CELLS 388 1164
2	0	1
2	2	3
2	4	5
2	6	7
2	8	9
2	10	11
2	12	13
2	14	15
2	16	17
2	18	19
2	20	21
2	22	23
2	24	25
2	26	27
2	28	29
2	30	31
2	32	33
2	34	35
2	36	37
2	38	39
2	40	41
2	42	43
2	44	45
2	46	47
2	48	49
2	50	51
2	52	53
2	54	55
2	56	57
2	58	59
2	60	61
2	62	63
2	64	65
2	66	67
2	68	69
2	70	71
2	72	73
2	74	75
2	76	77
2	78	79
2	80	81
2	82	83
2	84	85
2	86	87
2	88	89
2	90	91
2	92	93
2	94	95
2	96	97
2	98	99
2	100	101
2	102	103
2	104	105
2	106	107
2	108	109
2	110	111
2	112	113
2	114	115
2	116	117
2	118	119
2	120	121
2	122	123
2	124	125
2	126	127
2	128	129
2	130	131
2	132	133
2	134	135
2	136	137
2	138	139
2	140	141
2	142	143
2	144	145
2	146	147
2	148	149
2	150	151
2	152	153
2	154	155
2	156	157
2	158	159
2	160	161
2	162	163
2	164	165
2	166	167
2	168	169
2	170	171
2	172	173
2	174	175
2	176	177
2	178	179
2	180	181
2	182	183
2	184	185
2	186	187
2	188	189
2	190	191
2	192	193
2	194	195
2	196	197
2	198	199
2	200	201
2	202	203
2	204	205
2	206	207
2	208	209
2	210	211
2	212	213
2	214	215
2	216	217
2	218	219
2	220	221
2	222	223
2	224	225
2	226	227
2	228	229
2	230	231
2	232	233
2	234	235
2	236	237
2	238	239
2	240	241
2	242	243
2	244	245
2	246	247
2	248	249
2	250	251
2	252	253
2	254	255
2	256	257
2	258	259
2	260	261
2	262	263
2	264	265
2	266	267
2	268	269
2	270	271
2	272	273
2	274	275
2	276	277
2	278	279
2	280	281
2	282	283
2	284	285
2	286	287
2	288	289
2	290	291
2	292	293
2	294	295
2	296	297
2	298	299
2	300	301
2	302	303
2	304	305
2	306	307
2	308	309
2	310	311
2	312	313
2	314	315
2	316	317
2	318	319
2	320	321
2	322	323
2	324	325
2	326	327
2	328	329
2	330	331
2	332	333
2	334	335
2	336	337
2	338	339
2	340	341
2	342	343
2	344	345
2	346	347
2	348	349
2	350	351
2	352	353
2	354	355
2	356	357
2	358	359
2	360	361
2	362	363
2	364	365
2	366	367
2	368	369
2	370	371
2	372	373
2	374	375
2	376	377
2	378	379
2	380	381
2	382	383
2	384	385
2	386	387
2	388	389
2	390	391
2	392	393
2	394	395
2	396	397
2	398	399
2	400	401
2	402	403
2	404	405
2	406	407
2	408	409
2	410	411
2	412	413
2	414	415
2	416	417
2	418	419
2	420	421
2	422	423
2	424	425
2	426	427
2	428	429
2	430	431
2	432	433
2	434	435
2	436	437
2	438	439
2	440	441
2	442	443
2	444	445
2	446	447
2	448	449
2	450	451
2	452	453
2	454	455
2	456	457
2	458	459
2	460	461
2	462	463
2	464	465
2	466	467
2	468	469
2	470	471
2	472	473
2	474	475
2	476	477
2	478	479
2	480	481
2	482	483
2	484	485
2	486	487
2	488	489
2	490	491
2	492	493
2	494	495
2	496	497
2	498	499
2	500	501
2	502	503
2	504	505
2	506	507
2	508	509
2	510	511
2	512	513
2	514	515
2	516	517
2	518	519
2	520	521
2	522	523
2	524	525
2	526	527
2	528	529
2	530	531
2	532	533
2	534	535
2	536	537
2	538	539
2	540	541
2	542	543
2	544	545
2	546	547
2	548	549
2	550	551
2	552	553
2	554	555
2	556	557
2	558	559
2	560	561
2	562	563
2	564	565
2	566	567
2	568	569
2	570	571
2	572	573
2	574	575
2	576	577
2	578	579
2	580	581
2	582	583
2	584	585
2	586	587
2	588	589
2	590	591
2	592	593
2	594	595
2	596	597
2	598	599
2	600	601
2	602	603
2	604	605
2	606	607
2	608	609
2	610	611
2	612	613
2	614	615
2	616	617
2	618	619
2	620	621
2	622	623
2	624	625
2	626	627
2	628	629
2	630	631
2	632	633
2	634	635
2	636	637
2	638	639
2	640	641
2	642	643
2	644	645
2	646	647
2	648	649
2	650	651
2	652	653
2	654	655
2	656	657
2	658	659
2	660	661
2	662	663
2	664	665
2	666	667
2	668	669
2	670	671
2	672	673
2	674	675
2	676	677
2	678	679
2	680	681
2	682	683
2	684	685
2	686	687
2	688	689
2	690	691
2	692	693
2	694	695
2	696	697
2	698	699
2	700	701
2	702	703
2	704	705
2	706	707
2	708	709
2	710	711
2	712	713
2	714	715
2	716	717
2	718	719
2	720	721
2	722	723
2	724	725
2	726	727
2	728	729
2	730	731
2	732	733
2	734	735
2	736	737
2	738	739
2	740	741
2	742	743
2	744	745
2	746	747
2	748	749
2	750	751
2	752	753
2	754	755
2	756	757
2	758	759
2	760	761
2	762	763
2	764	765
2	766	767
2	768	769
2	770	771
2	772	773
2	774	775

CELL_TYPES 388
 3 3 3 3 3 3 3 3 3 3 3 3 3 3 3 3 3 3 3 3 3 3 3 3 3 3 3 3 3 3 3 3 3 3 3 3 3 3 3 3 3 3 3 3 3 3 3 3 3 3 3 3 3 3 3 3 3 3 3 3 3 3 3 3 3 3 3 3 3 3 3 3 3 3 3 3 3 3 3 3 3 3 3 3 3 3 3 3 3 3 3 3 3 3 3 3 3 3 3 3 3 3 3 3 3 3 3 3 3 3 3 3 3 3 3 3 3 3 3 3 3 3 3 3 3 3 3 3 3 3 3 3 3 3 3 3 3 3 3 3 3 3 3 3 3 3 3 3 3 3 3 3 3 3 3 3 3 3 3 3 3 3 3 3 3 3 3 3 3 3 3 3 3 3 3 3 3 3 3 3 3 3 3 3 3 3 3 3 3 3 3 3 3 3 3 3 3 3 3 3 3 3 3 3 3 3 3 3 3 3 3 3 3 3 3 3 3 3 3 3 3 3 3 3 3 3 3 3 3 3 3 3 3 3 3 3 3 3 3 3 3 3 3 3 3 3 3 3 3 3 3 3 3 3 3 3 3 3 3 3 3 3 3 3 3 3 3 3 3 3 3 3 3 3 3 3 3 3 3 3 3 3 3 3 3 3 3 3 3 3 3 3 3 3 3 3 3 3 3 3 3 3 3 3 3 3 3 3 3 3 3 3 3 3 3 3 3 3 3 3 3 3 3 3 3 3 3 3 3 3 3 3 3 3 3 3 3 3 3 3 3 3 3 3 3 3 3 3 3 3 3 3 3 3 3 3 3 3 3 3 3 3 3 3 3 3 3 3 3 3 3 3 3 3 3 3 3 3 3 3 3 3 3 3 3 3 3 3
POINT_DATA 776
SCALARS u_hat double 1
LOOKUP_TABLE default
-0.129071 -0.104423 -0.087984 -0.0458689 -0.130663 -0.0937138 -0.0979998 -0.0447002 -0.087984 -0.0458689 1.0917e-06 -2.925e-07 -0.0914696 0.00763691 -0.0459769 -0.000829939 -0.105029 0.00636467 -0.0471533 0.000452414 -0.0979998 -0.0447002 1.0917e-06 -2.925e-07 -0.0471533 0.000452414 5.59588e-16 -1.49941e-16 -0.0459769 -0.000829939 5.59588e-16 -1.49941e-16 -0.305204 -0.201717 -0.230385 -0.171689 -0.289987 -0.179655 -0.20346 -0.229197 -0.230385 -0.171689 0.0505702 -0.0834078 -0.172972 0.72242 -0.26873 -0.229894 0.0505702 -0.0834078 -0.181905 -0.110181 0.72194 -0.115922 -0.190437 -0.204588 -0.181905 -0.110181 -0.189375 -0.120437 -0.119547 -0.193573 -0.193976 -0.120239 -0.201322 -0.187333 -0.174296 -0.161352 -0.20346 -0.229197 -0.125749 -0.172642 -0.174296 -0.161352 -0.244441 0.281784 -0.26873 -0.229894 -0.105504 0.796168 -0.222383 -0.163073 -0.103509 0.811141 -0.125749 -0.172642 -0.0206067 0.141192 -0.201138 -0.0648491 -0.129071 -0.116747 -0.193976 -0.120239 -0.128604 -0.0404779 -0.0606894 0.843716 -0.116747 -0.104423 -0.128604 -0.0404779 0.16711 0.0490266 -0.228431 -0.316792 -0.165644 -0.248667 -0.226089 -0.224609 -0.255574 -0.239676 -0.165644 -0.248667 -0.101097 0.046074 -0.256177 -0.243426 -0.178997 0.714893 -0.354196 -0.36377 -0.178936 0.696259 -0.255574 -0.239676 -0.330771 0.179782 -0.101097 0.046074 -0.141808 -0.199147 -0.243763 -0.240639 0.716618 -0.129199 -0.141808 -0.199147 -0.149302 -0.198548 -0.20518 -0.154193 -0.187259 -0.139437 -0.131542 0.755611 -0.236109 -0.208569 -0.187259 -0.139437 0.241747 -0.223145 -0.149302 -0.198548 -0.101582 -0.162877 -0.153654 -0.174366 -0.137704 -0.150615 -0.101582 -0.162877 -0.0175774 0.15736 -0.209868 -0.165396 -0.0908829 0.831133 -0.236109 -0.208569 -0.0947058 0.805686 -0.137704 -0.150615 -0.0619342 0.128462 -0.0175774 0.15736 -0.0254025 -0.0413567 -0.165453 -0.118912 0.829959 0.0144523 -0.0254025 -0.0413567 -0.000213178 0.00104074 -0.0854316 0.0152173 -0.0476744 0.0746493 0.0155285 0.905561 0.00134806 0.00872153 -0.0476744 0.0746493 0.234368 0.152005 -0.169235 -0.198025 0.805661 -0.0612917 -0.0619342 0.128462 -0.102879 -0.120344 -0.189375 -0.120437 -0.122493 -0.0351944 -0.102879 -0.120344 -0.130663 -0.112189 -0.122493 -0.0351944 0.190148 0.0563652 -0.0602902 0.868376 -0.112189 -0.0937138 0.907066 0.0355562 0.00872153 0.00134806 0.234368 0.152005 -0.0278687 0.0740702 0.190148 0.0563652 -0.0211675 0.0270178 0.866709 0.0312728 -0.0914696 -0.0419163 -0.0211675 0.0270178 0.00104074 -0.000213178 -0.0278687 0.0740702 -0.0419163 0.00763691 -0.161963 -0.104296 0.809835 -0.00356923 -0.0206067 0.141192 -0.0144514 -0.0632883 -0.0735877 0.0091062 -0.060568 0.0653249 -0.0144514 -0.0632883 -0.000213178 0.00104074 -0.060568 0.0653249 0.208532 0.153178 -0.00320579 0.883926 0.00134806 0.00872153 0.846121 0.00959517 -0.105029 -0.0493323 0.16711 0.0490266 -0.0439551 0.0201568 0.208532 0.153178 -0.0565676 0.0820251 0.88521 0.0146823 0.00872153 0.00134806 -0.0565676 0.0820251 -0.0493323 0.00636467 -0.0439551 0.0201568 0.00104074 -0.000213178 -0.263894 -0.291545 -0.130643 -0.220027 -0.330771 -0.0754943 -0.275516 -0.23871 -0.130643 -0.220027 0.635975 0.209001 -0.0754943 0.179782 -0.160036 0.123217 -0.286328 -0.281874 -0.190742 -0.265355 -0.275516 -0.23871 -0.289987 -0.234821 -0.190742 -0.265355 0.312975 -0.193372 -0.160036 0.123217 -0.234821 -0.179655 0.635975 0.209001 2.75317 1.42336 0.297023 2.55775 0.0770411 1.64761 2.75317 1.42336 4.18001 2.27377 2.25731 4.18099 1.41611 2.77817 0.312975 -0.193372 1.64406 0.107064 0.0770411 1.64761 -0.172972 0.274724 1.64406 0.107064 2.57788 0.350101 1.41611 2.77817 0.274724 0.72242 4.18001 2.27377 2.78677 1.44821 4.17694 2.28852 2.7756 1.44813 2.78677 1.44821 0.699985 0.260344 2.58752 0.350755 1.67769 0.133217 2.57788 0.350101 1.67755 0.130747 2.7756 1.44813 0.72194 0.303009 1.67755 0.130747 0.373503 -0.140878 1.67769 0.133217 0.303009 -0.115922 0.699985 0.260344 -0.0454281 -0.14272 0.241747 0.00930125 0.182185 -0.0820358 -0.0454281 -0.14272 -0.169235 -0.18363 0.00930125 -0.223145 -0.157705 -0.181918 0.373503 -0.140878 -0.110051 -0.189409 0.182185 -0.0820358 -0.119547 -0.15656 -0.110051 -0.189409 -0.18363 -0.198025 -0.157705 -0.181918 -0.15656 -0.193573 -0.103509 0.353816 0.181946 1.74165 -0.105504 0.345332 0.186245 1.74509 0.181946 1.74165 0.391232 2.66183 0.345332 0.796168 1.51703 2.85575 0.353816 0.811141 1.52322 2.87041 0.186245 1.74509 0.438384 2.68485 1.52322 2.87041 2.36303 4.28822 1.51703 2.85575 2.38302 4.28871 -0.244441 0.0186719 -0.195959 -0.14147 -0.190437 -0.197513 -0.0363367 -0.126367 -0.195959 -0.14147 -0.201138 -0.132994 -0.197513 -0.204588 -0.0938331 -0.165968 0.0186719 0.281784 -0.0657738 0.229933 -0.0363367 -0.126367 0.740586 0.308323 -0.0657738 0.229933 -0.132994 -0.0648491 -0.0938331 -0.165968 0.421503 -0.0856464 0.391232 2.66183 0.181058 1.7591 0.740586 0.308323 2.86144 1.52977 0.181058 1.7591 -0.0606894 0.391513 0.421503 -0.0856464 1.75926 0.219037 2.36303 4.28822 1.52966 2.8927 2.86144 1.52977 4.29227 2.39126 1.52966 2.8927 0.391513 0.843716 1.75926 0.219037 2.69539 0.471863 -0.178936 0.258661 0.102833 1.64877 -0.178997 0.267948 0.0972509 1.6446 0.102833 1.64877 0.342847 2.58088 0.267948 0.714893 1.42611 2.76978 0.258661 0.696259 1.42626 2.74702 0.0972509 1.6446 0.297023 2.55775 1.42626 2.74702 2.27953 4.17641 1.42611 2.76978 2.25731 4.18099 0.342847 2.58088 0.126626 1.67793 0.716618 0.293709 2.76697 1.45618 0.126626 1.67793 -0.131542 0.312035 0.293709 -0.129199 1.67477 0.148888 2.27953 4.17641 1.45004 2.78102 2.76697 1.45618 4.17694 2.28852 1.45004 2.78102 0.312035 0.755611 1.67477 0.148888 2.58752 0.350755 -0.0947058 0.35549 0.202807 1.76397 -0.0908829 0.370125 0.193483 1.7587 0.202807 1.76397 0.460247 2.70526 0.370125 0.831133 1.53777 2.89802 0.35549 0.805686 1.53103 2.88798 0.193483 1.7587 0.430488 2.6871 1.53103 2.88798 2.40168 4.31843 1.53777 2.89802 2.38319 4.31799 0.460247 2.70526 0.261296 1.81047 0.829959 0.422206 2.89492 1.59396 0.261296 1.81047 0.0155285 0.460545 0.422206 0.0144523 1.81469 0.295927 2.40168 4.31843 1.59436 2.93256 2.89492 1.59396 4.31459 2.44104 1.59436 2.93256 0.460545 0.905561 1.81469 0.295927 2.74343 0.53171 0.805661 0.372185 2.88551 1.5509 0.430488 2.6871 0.206507 1.7792 2.88551 1.5509 4.3145 2.42024 2.38319 4.31799 1.55105 2.91925 0.372185 -0.0612917 1.78209 0.236058 0.206507 1.7792 -0.0602902 0.404043 1.78209 0.236058 2.72258 0.490745 1.55105 2.91925 0.404043 0.868376 4.3145 2.42024 2.9298 1.61042 4.31459 2.44104 2.91659 1.60375 2.9298 1.61042 0.907066 0.471311 2.74343 0.53171 1.82997 0.304474 2.72258 0.490745 1.82684 0.285728 2.91659 1.60375 0.866709 0.448991 1.82684 0.285728 0.471311 0.0355562 1.82997 0.304474 0.448991 0.0312728 0.809835 0.403133 2.87339 1.57043 0.438384 2.68485 0.237649 1.79135 2.87339 1.57043 4.29283 2.41097 2.38302 4.28871 1.57042 2.90515 0.403133 -0.00356923 1.7867 0.278762 0.237649 1.79135 -0.00320579 0.44036 1.7867 0.278762 2.71511 0.511712 1.57042 2.90515 0.44036 0.883926 4.29283 2.41097 2.89581 1.57211 4.29227 2.39126 2.90832 1.57924 2.89581 1.57211 0.846121 0.427858 2.69539 0.471863 1.80039 0.265365 2.71511 0.511712 1.80533 0.282207 2.90832 1.57924 0.88521 0.449946 1.80533 0.282207 0.427858 0.00959517 1.80039 0.265365 0.449946 0.0146823 
