# vtk DataFile Version 3.0
#This file was generated by the deal.II library on 2020/8/22 at 21:54:05
ASCII
DATASET UNSTRUCTURED_GRID

POINTS 4096 double
-1 -1 0
-1 -0.958333 0
-1 -0.916667 0
-1 -0.875 0
-0.875 -1 0
-0.875 -0.958333 0
-0.875 -0.916667 0
-0.875 -0.875 0
-1 -1 0
-0.958333 -1 0
-0.916667 -1 0
-0.875 -1 0
-1 -0.875 0
-0.958333 -0.875 0
-0.916667 -0.875 0
-0.875 -0.875 0
-0.875 -1 0
-0.875 -0.958333 0
-0.875 -0.916667 0
-0.875 -0.875 0
-0.75 -1 0
-0.75 -0.958333 0
-0.75 -0.916667 0
-0.75 -0.875 0
-0.875 -1 0
-0.833333 -1 0
-0.791667 -1 0
-0.75 -1 0
-0.875 -0.875 0
-0.833333 -0.875 0
-0.791667 -0.875 0
-0.75 -0.875 0
-1 -0.875 0
-1 -0.833333 0
-1 -0.791667 0
-1 -0.75 0
-0.875 -0.875 0
-0.875 -0.833333 0
-0.875 -0.791667 0
-0.875 -0.75 0
-1 -0.875 0
-0.958333 -0.875 0
-0.916667 -0.875 0
-0.875 -0.875 0
-1 -0.75 0
-0.958333 -0.75 0
-0.916667 -0.75 0
-0.875 -0.75 0
-0.875 -0.875 0
-0.875 -0.833333 0
-0.875 -0.791667 0
-0.875 -0.75 0
-0.75 -0.875 0
-0.75 -0.833333 0
-0.75 -0.791667 0
-0.75 -0.75 0
-0.875 -0.875 0
-0.833333 -0.875 0
-0.791667 -0.875 0
-0.75 -0.875 0
-0.875 -0.75 0
-0.833333 -0.75 0
-0.791667 -0.75 0
-0.75 -0.75 0
-0.75 -1 0
-0.75 -0.958333 0
-0.75 -0.916667 0
-0.75 -0.875 0
-0.625 -1 0
-0.625 -0.958333 0
-0.625 -0.916667 0
-0.625 -0.875 0
-0.75 -1 0
-0.708333 -1 0
-0.666667 -1 0
-0.625 -1 0
-0.75 -0.875 0
-0.708333 -0.875 0
-0.666667 -0.875 0
-0.625 -0.875 0
-0.625 -1 0
-0.625 -0.958333 0
-0.625 -0.916667 0
-0.625 -0.875 0
-0.5 -1 0
-0.5 -0.958333 0
-0.5 -0.916667 0
-0.5 -0.875 0
-0.625 -1 0
-0.583333 -1 0
-0.541667 -1 0
-0.5 -1 0
-0.625 -0.875 0
-0.583333 -0.875 0
-0.541667 -0.875 0
-0.5 -0.875 0
-0.75 -0.875 0
-0.75 -0.833333 0
-0.75 -0.791667 0
-0.75 -0.75 0
-0.625 -0.875 0
-0.625 -0.833333 0
-0.625 -0.791667 0
-0.625 -0.75 0
-0.75 -0.875 0
-0.708333 -0.875 0
-0.666667 -0.875 0
-0.625 -0.875 0
-0.75 -0.75 0
-0.708333 -0.75 0
-0.666667 -0.75 0
-0.625 -0.75 0
-0.625 -0.875 0
-0.625 -0.833333 0
-0.625 -0.791667 0
-0.625 -0.75 0
-0.5 -0.875 0
-0.5 -0.833333 0
-0.5 -0.791667 0
-0.5 -0.75 0
-0.625 -0.875 0
-0.583333 -0.875 0
-0.541667 -0.875 0
-0.5 -0.875 0
-0.625 -0.75 0
-0.583333 -0.75 0
-0.541667 -0.75 0
-0.5 -0.75 0
-1 -0.75 0
-1 -0.708333 0
-1 -0.666667 0
-1 -0.625 0
-0.875 -0.75 0
-0.875 -0.708333 0
-0.875 -0.666667 0
-0.875 -0.625 0
-1 -0.75 0
-0.958333 -0.75 0
-0.916667 -0.75 0
-0.875 -0.75 0
-1 -0.625 0
-0.958333 -0.625 0
-0.916667 -0.625 0
-0.875 -0.625 0
-0.875 -0.75 0
-0.875 -0.708333 0
-0.875 -0.666667 0
-0.875 -0.625 0
-0.75 -0.75 0
-0.75 -0.708333 0
-0.75 -0.666667 0
-0.75 -0.625 0
-0.875 -0.75 0
-0.833333 -0.75 0
-0.791667 -0.75 0
-0.75 -0.75 0
-0.875 -0.625 0
-0.833333 -0.625 0
-0.791667 -0.625 0
-0.75 -0.625 0
-1 -0.625 0
-1 -0.583333 0
-1 -0.541667 0
-1 -0.5 0
-0.875 -0.625 0
-0.875 -0.583333 0
-0.875 -0.541667 0
-0.875 -0.5 0
-1 -0.625 0
-0.958333 -0.625 0
-0.916667 -0.625 0
-0.875 -0.625 0
-1 -0.5 0
-0.958333 -0.5 0
-0.916667 -0.5 0
-0.875 -0.5 0
-0.875 -0.625 0
-0.875 -0.583333 0
-0.875 -0.541667 0
-0.875 -0.5 0
-0.75 -0.625 0
-0.75 -0.583333 0
-0.75 -0.541667 0
-0.75 -0.5 0
-0.875 -0.625 0
-0.833333 -0.625 0
-0.791667 -0.625 0
-0.75 -0.625 0
-0.875 -0.5 0
-0.833333 -0.5 0
-0.791667 -0.5 0
-0.75 -0.5 0
-0.75 -0.75 0
-0.75 -0.708333 0
-0.75 -0.666667 0
-0.75 -0.625 0
-0.625 -0.75 0
-0.625 -0.708333 0
-0.625 -0.666667 0
-0.625 -0.625 0
-0.75 -0.75 0
-0.708333 -0.75 0
-0.666667 -0.75 0
-0.625 -0.75 0
-0.75 -0.625 0
-0.708333 -0.625 0
-0.666667 -0.625 0
-0.625 -0.625 0
-0.625 -0.75 0
-0.625 -0.708333 0
-0.625 -0.666667 0
-0.625 -0.625 0
-0.5 -0.75 0
-0.5 -0.708333 0
-0.5 -0.666667 0
-0.5 -0.625 0
-0.625 -0.75 0
-0.583333 -0.75 0
-0.541667 -0.75 0
-0.5 -0.75 0
-0.625 -0.625 0
-0.583333 -0.625 0
-0.541667 -0.625 0
-0.5 -0.625 0
-0.75 -0.625 0
-0.75 -0.583333 0
-0.75 -0.541667 0
-0.75 -0.5 0
-0.625 -0.625 0
-0.625 -0.583333 0
-0.625 -0.541667 0
-0.625 -0.5 0
-0.75 -0.625 0
-0.708333 -0.625 0
-0.666667 -0.625 0
-0.625 -0.625 0
-0.75 -0.5 0
-0.708333 -0.5 0
-0.666667 -0.5 0
-0.625 -0.5 0
-0.625 -0.625 0
-0.625 -0.583333 0
-0.625 -0.541667 0
-0.625 -0.5 0
-0.5 -0.625 0
-0.5 -0.583333 0
-0.5 -0.541667 0
-0.5 -0.5 0
-0.625 -0.625 0
-0.583333 -0.625 0
-0.541667 -0.625 0
-0.5 -0.625 0
-0.625 -0.5 0
-0.583333 -0.5 0
-0.541667 -0.5 0
-0.5 -0.5 0
-0.5 -1 0
-0.5 -0.958333 0
-0.5 -0.916667 0
-0.5 -0.875 0
-0.375 -1 0
-0.375 -0.958333 0
-0.375 -0.916667 0
-0.375 -0.875 0
-0.5 -1 0
-0.458333 -1 0
-0.416667 -1 0
-0.375 -1 0
-0.5 -0.875 0
-0.458333 -0.875 0
-0.416667 -0.875 0
-0.375 -0.875 0
-0.375 -1 0
-0.375 -0.958333 0
-0.375 -0.916667 0
-0.375 -0.875 0
-0.25 -1 0
-0.25 -0.958333 0
-0.25 -0.916667 0
-0.25 -0.875 0
-0.375 -1 0
-0.333333 -1 0
-0.291667 -1 0
-0.25 -1 0
-0.375 -0.875 0
-0.333333 -0.875 0
-0.291667 -0.875 0
-0.25 -0.875 0
-0.5 -0.875 0
-0.5 -0.833333 0
-0.5 -0.791667 0
-0.5 -0.75 0
-0.375 -0.875 0
-0.375 -0.833333 0
-0.375 -0.791667 0
-0.375 -0.75 0
-0.5 -0.875 0
-0.458333 -0.875 0
-0.416667 -0.875 0
-0.375 -0.875 0
-0.5 -0.75 0
-0.458333 -0.75 0
-0.416667 -0.75 0
-0.375 -0.75 0
-0.375 -0.875 0
-0.375 -0.833333 0
-0.375 -0.791667 0
-0.375 -0.75 0
-0.25 -0.875 0
-0.25 -0.833333 0
-0.25 -0.791667 0
-0.25 -0.75 0
-0.375 -0.875 0
-0.333333 -0.875 0
-0.291667 -0.875 0
-0.25 -0.875 0
-0.375 -0.75 0
-0.333333 -0.75 0
-0.291667 -0.75 0
-0.25 -0.75 0
-0.25 -1 0
-0.25 -0.958333 0
-0.25 -0.916667 0
-0.25 -0.875 0
-0.125 -1 0
-0.125 -0.958333 0
-0.125 -0.916667 0
-0.125 -0.875 0
-0.25 -1 0
-0.208333 -1 0
-0.166667 -1 0
-0.125 -1 0
-0.25 -0.875 0
-0.208333 -0.875 0
-0.166667 -0.875 0
-0.125 -0.875 0
-0.125 -1 0
-0.125 -0.958333 0
-0.125 -0.916667 0
-0.125 -0.875 0
0 -1 0
0 -0.958333 0
0 -0.916667 0
0 -0.875 0
-0.125 -1 0
-0.0833333 -1 0
-0.0416667 -1 0
0 -1 0
-0.125 -0.875 0
-0.0833333 -0.875 0
-0.0416667 -0.875 0
0 -0.875 0
-0.25 -0.875 0
-0.25 -0.833333 0
-0.25 -0.791667 0
-0.25 -0.75 0
-0.125 -0.875 0
-0.125 -0.833333 0
-0.125 -0.791667 0
-0.125 -0.75 0
-0.25 -0.875 0
-0.208333 -0.875 0
-0.166667 -0.875 0
-0.125 -0.875 0
-0.25 -0.75 0
-0.208333 -0.75 0
-0.166667 -0.75 0
-0.125 -0.75 0
-0.125 -0.875 0
-0.125 -0.833333 0
-0.125 -0.791667 0
-0.125 -0.75 0
0 -0.875 0
0 -0.833333 0
0 -0.791667 0
0 -0.75 0
-0.125 -0.875 0
-0.0833333 -0.875 0
-0.0416667 -0.875 0
0 -0.875 0
-0.125 -0.75 0
-0.0833333 -0.75 0
-0.0416667 -0.75 0
0 -0.75 0
-0.5 -0.75 0
-0.5 -0.708333 0
-0.5 -0.666667 0
-0.5 -0.625 0
-0.375 -0.75 0
-0.375 -0.708333 0
-0.375 -0.666667 0
-0.375 -0.625 0
-0.5 -0.75 0
-0.458333 -0.75 0
-0.416667 -0.75 0
-0.375 -0.75 0
-0.5 -0.625 0
-0.458333 -0.625 0
-0.416667 -0.625 0
-0.375 -0.625 0
-0.375 -0.75 0
-0.375 -0.708333 0
-0.375 -0.666667 0
-0.375 -0.625 0
-0.25 -0.75 0
-0.25 -0.708333 0
-0.25 -0.666667 0
-0.25 -0.625 0
-0.375 -0.75 0
-0.333333 -0.75 0
-0.291667 -0.75 0
-0.25 -0.75 0
-0.375 -0.625 0
-0.333333 -0.625 0
-0.291667 -0.625 0
-0.25 -0.625 0
-0.5 -0.625 0
-0.5 -0.583333 0
-0.5 -0.541667 0
-0.5 -0.5 0
-0.375 -0.625 0
-0.375 -0.583333 0
-0.375 -0.541667 0
-0.375 -0.5 0
-0.5 -0.625 0
-0.458333 -0.625 0
-0.416667 -0.625 0
-0.375 -0.625 0
-0.5 -0.5 0
-0.458333 -0.5 0
-0.416667 -0.5 0
-0.375 -0.5 0
-0.375 -0.625 0
-0.375 -0.583333 0
-0.375 -0.541667 0
-0.375 -0.5 0
-0.25 -0.625 0
-0.25 -0.583333 0
-0.25 -0.541667 0
-0.25 -0.5 0
-0.375 -0.625 0
-0.333333 -0.625 0
-0.291667 -0.625 0
-0.25 -0.625 0
-0.375 -0.5 0
-0.333333 -0.5 0
-0.291667 -0.5 0
-0.25 -0.5 0
-0.25 -0.75 0
-0.25 -0.708333 0
-0.25 -0.666667 0
-0.25 -0.625 0
-0.125 -0.75 0
-0.125 -0.708333 0
-0.125 -0.666667 0
-0.125 -0.625 0
-0.25 -0.75 0
-0.208333 -0.75 0
-0.166667 -0.75 0
-0.125 -0.75 0
-0.25 -0.625 0
-0.208333 -0.625 0
-0.166667 -0.625 0
-0.125 -0.625 0
-0.125 -0.75 0
-0.125 -0.708333 0
-0.125 -0.666667 0
-0.125 -0.625 0
0 -0.75 0
0 -0.708333 0
0 -0.666667 0
0 -0.625 0
-0.125 -0.75 0
-0.0833333 -0.75 0
-0.0416667 -0.75 0
0 -0.75 0
-0.125 -0.625 0
-0.0833333 -0.625 0
-0.0416667 -0.625 0
0 -0.625 0
-0.25 -0.625 0
-0.25 -0.583333 0
-0.25 -0.541667 0
-0.25 -0.5 0
-0.125 -0.625 0
-0.125 -0.583333 0
-0.125 -0.541667 0
-0.125 -0.5 0
-0.25 -0.625 0
-0.208333 -0.625 0
-0.166667 -0.625 0
-0.125 -0.625 0
-0.25 -0.5 0
-0.208333 -0.5 0
-0.166667 -0.5 0
-0.125 -0.5 0
-0.125 -0.625 0
-0.125 -0.583333 0
-0.125 -0.541667 0
-0.125 -0.5 0
0 -0.625 0
0 -0.583333 0
0 -0.541667 0
0 -0.5 0
-0.125 -0.625 0
-0.0833333 -0.625 0
-0.0416667 -0.625 0
0 -0.625 0
-0.125 -0.5 0
-0.0833333 -0.5 0
-0.0416667 -0.5 0
0 -0.5 0
-1 -0.5 0
-1 -0.458333 0
-1 -0.416667 0
-1 -0.375 0
-0.875 -0.5 0
-0.875 -0.458333 0
-0.875 -0.416667 0
-0.875 -0.375 0
-1 -0.5 0
-0.958333 -0.5 0
-0.916667 -0.5 0
-0.875 -0.5 0
-1 -0.375 0
-0.958333 -0.375 0
-0.916667 -0.375 0
-0.875 -0.375 0
-0.875 -0.5 0
-0.875 -0.458333 0
-0.875 -0.416667 0
-0.875 -0.375 0
-0.75 -0.5 0
-0.75 -0.458333 0
-0.75 -0.416667 0
-0.75 -0.375 0
-0.875 -0.5 0
-0.833333 -0.5 0
-0.791667 -0.5 0
-0.75 -0.5 0
-0.875 -0.375 0
-0.833333 -0.375 0
-0.791667 -0.375 0
-0.75 -0.375 0
-1 -0.375 0
-1 -0.333333 0
-1 -0.291667 0
-1 -0.25 0
-0.875 -0.375 0
-0.875 -0.333333 0
-0.875 -0.291667 0
-0.875 -0.25 0
-1 -0.375 0
-0.958333 -0.375 0
-0.916667 -0.375 0
-0.875 -0.375 0
-1 -0.25 0
-0.958333 -0.25 0
-0.916667 -0.25 0
-0.875 -0.25 0
-0.875 -0.375 0
-0.875 -0.333333 0
-0.875 -0.291667 0
-0.875 -0.25 0
-0.75 -0.375 0
-0.75 -0.333333 0
-0.75 -0.291667 0
-0.75 -0.25 0
-0.875 -0.375 0
-0.833333 -0.375 0
-0.791667 -0.375 0
-0.75 -0.375 0
-0.875 -0.25 0
-0.833333 -0.25 0
-0.791667 -0.25 0
-0.75 -0.25 0
-0.75 -0.5 0
-0.75 -0.458333 0
-0.75 -0.416667 0
-0.75 -0.375 0
-0.625 -0.5 0
-0.625 -0.458333 0
-0.625 -0.416667 0
-0.625 -0.375 0
-0.75 -0.5 0
-0.708333 -0.5 0
-0.666667 -0.5 0
-0.625 -0.5 0
-0.75 -0.375 0
-0.708333 -0.375 0
-0.666667 -0.375 0
-0.625 -0.375 0
-0.625 -0.5 0
-0.625 -0.458333 0
-0.625 -0.416667 0
-0.625 -0.375 0
-0.5 -0.5 0
-0.5 -0.458333 0
-0.5 -0.416667 0
-0.5 -0.375 0
-0.625 -0.5 0
-0.583333 -0.5 0
-0.541667 -0.5 0
-0.5 -0.5 0
-0.625 -0.375 0
-0.583333 -0.375 0
-0.541667 -0.375 0
-0.5 -0.375 0
-0.75 -0.375 0
-0.75 -0.333333 0
-0.75 -0.291667 0
-0.75 -0.25 0
-0.625 -0.375 0
-0.625 -0.333333 0
-0.625 -0.291667 0
[...]
POINT_DATA 4096
SCALARS u_hat double 1
LOOKUP_TABLE default
1.76848e-05 3.86851e-05 0.000101781 0.000224283 0.000235593 0.000611454 0.00154923 0.00348518 1.72787e-05 3.88645e-05 0.000101542 0.00022454 0.000235066 0.000611913 0.00154904 0.00348582 0.000235593 0.000611454 0.00154923 0.00348518 0.00162927 0.0043245 0.0109075 0.0246017 0.000205402 0.000488004 0.000905248 0.00163436 0.00338719 0.00741136 0.0140464 0.0249447 0.000202397 0.000489667 0.000903955 0.00163736 0.00338052 0.00741469 0.0140436 0.0249513 0.000235066 0.000611913 0.00154904 0.00348582 0.00162771 0.00432527 0.010907 0.0246032 0.00338052 0.00741469 0.0140436 0.0249513 0.0240655 0.0521697 0.0991274 0.175697 0.00338719 0.00741136 0.0140464 0.0249447 0.0240862 0.0521599 0.0991364 0.175677 0.00162927 0.0043245 0.0109075 0.0246017 0.00521925 0.0139797 0.0351931 0.0794559 0.00161879 0.00259361 0.00383775 0.00519704 0.0248906 0.039959 0.0590805 0.0800816 0.00521925 0.0139797 0.0351931 0.0794559 0.00770115 0.0206691 0.0520081 0.117443 0.005257 0.00642856 0.00738326 0.00761344 0.0803456 0.0992833 0.113414 0.117851 0.0240655 0.0521697 0.0991274 0.175697 0.0779879 0.168263 0.320125 0.566852 0.0248906 0.039959 0.0590805 0.0800816 0.175465 0.28176 0.416544 0.564673 0.0779879 0.168263 0.320125 0.566852 0.115359 0.248628 0.473159 0.83765 0.0803456 0.0992833 0.113414 0.117851 0.565939 0.700274 0.79938 0.831473 0.00161978 0.00259306 0.00383815 0.00519586 0.0248943 0.0399576 0.0590826 0.0800782 0.00162771 0.00432527 0.010907 0.0246032 0.00521883 0.0139798 0.0351932 0.0794564 0.0248943 0.0399576 0.0590826 0.0800782 0.17548 0.281753 0.416551 0.564658 0.0240862 0.0521599 0.0991364 0.175677 0.0780156 0.168251 0.320138 0.566825 0.00526218 0.00642574 0.00738543 0.00760864 0.0803559 0.0992782 0.113418 0.117841 0.00521883 0.0139798 0.0351932 0.0794564 0.00770571 0.0206673 0.0520102 0.117438 0.0803559 0.0992782 0.113418 0.117841 0.565966 0.70026 0.799391 0.831446 0.0780156 0.168251 0.320138 0.566825 0.115361 0.248627 0.473161 0.837647 0.17548 0.281753 0.416551 0.564658 0.566391 0.909531 1.3446 1.8228 0.175465 0.28176 0.416544 0.564673 0.566359 0.909546 1.34459 1.82283 0.566391 0.909531 1.3446 1.8228 0.837046 1.3442 1.98718 2.69395 0.565939 0.700274 0.79938 0.831473 1.82615 2.26085 2.5801 2.68475 0.565966 0.70026 0.799391 0.831446 1.82618 2.26084 2.58011 2.68472 0.566359 0.909546 1.34459 1.82283 0.837013 1.34422 1.98716 2.69398 1.82618 2.26084 2.58011 2.68472 2.69867 3.34143 3.81305 3.96802 1.82615 2.26085 2.5801 2.68475 2.6987 3.34141 3.81306 3.96799 0.00770115 0.0206691 0.0520081 0.117443 0.00522738 0.0139767 0.0351969 0.079447 0.00761337 0.00738298 0.00642811 0.00525725 0.117852 0.113413 0.0992834 0.0803455 0.00522738 0.0139767 0.0351969 0.079447 0.00163578 0.00432209 0.0109105 0.0245946 0.00519638 0.00383804 0.00259331 0.00161945 0.0800793 0.0590822 0.039958 0.0248935 0.115359 0.248628 0.473159 0.83765 0.077924 0.168288 0.3201 0.566917 0.117852 0.113413 0.0992834 0.0803455 0.831479 0.799376 0.700275 0.565934 0.077924 0.168288 0.3201 0.566917 0.0240146 0.0521892 0.0991076 0.17575 0.0800793 0.0590822 0.039958 0.0248935 0.56466 0.41655 0.281754 0.175478 0.00163578 0.00432209 0.0109105 0.0245946 0.000238391 0.000611764 0.0015532 0.00348934 0.00163565 0.000904812 0.000488891 0.000204512 0.0249481 0.0140454 0.00741486 0.00339013 0.000238391 0.000611764 0.0015532 0.00348934 3.31227e-05 7.83384e-05 0.000202419 0.000450299 0.000226849 0.000102217 4.47255e-05 2.99362e-05 0.00350198 0.00156787 0.0006937 0.000448824 0.0240146 0.0521892 0.0991076 0.17575 0.00336902 0.00743592 0.0140633 0.0250176 0.0249481 0.0140454 0.00741486 0.00339013 0.17569 0.0991339 0.0521785 0.0241192 0.00336902 0.00743592 0.0140633 0.0250176 0.000420555 0.000971321 0.00181533 0.00325883 0.00350198 0.00156787 0.0006937 0.000448824 0.0247002 0.0110489 0.00489465 0.00315237 0.837046 1.3442 1.98718 2.69395 0.566403 0.909527 1.34461 1.82279 0.831479 0.799376 0.700275 0.565934 2.68477 2.58009 2.26086 1.82613 0.566403 0.909527 1.34461 1.82279 0.17549 0.281751 0.416554 0.564655 0.56466 0.41655 0.281754 0.175478 1.8228 1.3446 0.909533 0.566389 2.69867 3.34143 3.81305 3.96802 1.82637 2.26076 2.58019 2.68452 2.68477 2.58009 2.26086 1.82613 3.96802 3.81305 3.34143 2.69867 1.82637 2.26076 2.58019 2.68452 0.566123 0.700203 0.799457 0.831291 1.8228 1.3446 0.909533 0.566389 2.69395 1.98718 1.3442 0.837048 0.17549 0.281751 0.416554 0.564655 0.0249456 0.0400334 0.0591974 0.0802305 0.17569 0.0991339 0.0521785 0.0241192 0.56685 0.320136 0.168302 0.0781394 0.0249456 0.0400334 0.0591974 0.0802305 0.00323629 0.00518756 0.00767438 0.0103958 0.0247002 0.0110489 0.00489465 0.00315237 0.079747 0.0356622 0.0158078 0.0101631 0.566123 0.700203 0.799457 0.831291 0.0805649 0.0994484 0.11366 0.118014 0.56685 0.320136 0.168302 0.0781394 0.83767 0.473165 0.248695 0.11556 0.0805649 0.0994484 0.11366 0.118014 0.010485 0.0128708 0.0147523 0.0152552 0.079747 0.0356622 0.0158078 0.0101631 0.117862 0.0527059 0.0233662 0.0150182 0.00760872 0.00738577 0.00642628 0.00526193 0.117841 0.113419 0.0992784 0.0803563 0.00770571 0.0206673 0.0520102 0.117438 0.00523395 0.0139735 0.0351996 0.07944 0.117841 0.113419 0.0992784 0.0803563 0.83144 0.799394 0.700259 0.565971 0.115361 0.248627 0.473161 0.837647 0.0778973 0.168299 0.320089 0.566943 0.00519662 0.00383785 0.0025934 0.00161904 0.0800808 0.0590809 0.0399588 0.0248914 0.00523395 0.0139735 0.0351996 0.07944 0.00163986 0.00432005 0.0109122 0.0245904 0.0800808 0.0590809 0.0399588 0.0248914 0.56467 0.416545 0.281759 0.175468 0.0778973 0.168299 0.320089 0.566943 0.023992 0.0521997 0.0990976 0.175772 0.83144 0.799394 0.700259 0.565971 2.68471 2.58012 2.26083 1.8262 0.837013 1.34422 1.98716 2.69398 0.566389 0.909533 1.3446 1.82281 2.68471 2.58012 2.26083 1.8262 3.96799 3.81306 3.34141 2.6987 2.6987 3.34141 3.81306 3.96799 1.82644 2.26073 2.58022 2.68446 0.56467 0.416545 0.281759 0.175468 1.82283 1.34459 0.909545 0.566363 0.566389 0.909533 1.3446 1.82281 0.175489 0.281752 0.416554 0.564656 1.82283 1.34459 0.909545 0.566363 2.69398 1.98716 1.34422 0.837016 1.82644 2.26073 2.58022 2.68446 0.566168 0.700182 0.799477 0.831245 0.0016363 0.000904274 0.000489034 0.00020382 0.0249496 0.0140446 0.00741538 0.00338885 0.00163986 0.00432005 0.0109122 0.0245904 0.00023969 0.000611137 0.00155383 0.00348813 0.0249496 0.0140446 0.00741538 0.00338885 0.175694 0.0991317 0.0521802 0.0241152 0.023992 0.0521997 0.0990976 0.175772 0.00336112 0.00743972 0.0140598 0.0250257 0.000226727 0.000102261 4.46953e-05 3.00364e-05 0.00350168 0.00156816 0.000693581 0.000449232 0.00023969 0.000611137 0.00155383 0.00348813 3.31337e-05 7.83494e-05 0.00020243 0.00045031 0.00350168 0.00156816 0.000693581 0.000449232 0.0246985 0.0110498 0.00489387 0.00315417 0.00336112 0.00743972 0.0140598 0.0250257 0.000420566 0.000971331 0.00181534 0.00325884 0.175694 0.0991317 0.0521802 0.0241152 0.566856 0.320134 0.168304 0.0781341 0.175489 0.281752 0.416554 0.564656 0.0249463 0.0400332 0.0591977 0.0802296 0.566856 0.320134 0.168304 0.0781341 0.837669 0.473165 0.248695 0.11556 0.566168 0.700182 0.799477 0.831245 0.08058 0.0994412 0.113666 0.117999 0.0246985 0.0110498 0.00489387 0.00315417 0.0797427 0.0356641 0.0158059 0.0101673 0.0249463 0.0400332 0.0591977 0.0802296 0.00323629 0.00518757 0.00767438 0.0103958 0.0797427 0.0356641 0.0158059 0.0101673 0.117858 0.0527081 0.0233642 0.0150229 0.08058 0.0994412 0.113666 0.117999 0.0104851 0.0128709 0.0147523 0.0152552 3.96799 3.81306 3.34141 2.6987 2.6845 2.5802 2.26075 1.82639 3.96802 3.81305 3.34143 2.69867 2.68448 2.58021 2.26074 1.82642 2.6845 2.5802 2.26075 1.82639 0.831282 0.79946 0.700199 0.566131 2.69395 1.98718 1.3442 0.837048 1.82279 1.34461 0.909526 0.566408 2.69398 1.98716 1.34422 0.837016 1.82281 1.3446 0.909535 0.566387 2.68448 2.58021 2.26074 1.82642 0.831254 0.799473 0.700186 0.566159 1.82281 1.3446 0.909535 0.566387 0.564659 0.416552 0.281753 0.175486 1.82279 1.34461 0.909526 0.566408 0.564652 0.416556 0.28175 0.175493 0.831282 0.79946 0.700199 0.566131 0.118012 0.113661 0.0994474 0.0805671 0.83767 0.473165 0.248695 0.11556 0.566949 0.320096 0.168341 0.0780416 0.118012 0.113661 0.0994474 0.0805671 0.0152552 0.0147523 0.0128709 0.0104851 0.117862 0.0527059 0.0233662 0.0150182 0.0797411 0.0356646 0.0158059 0.0101677 0.564659 0.416552 0.281753 0.175486 0.0802308 0.0591973 0.0400336 0.0249454 0.566949 0.320096 0.168341 0.0780416 0.175769 0.099102 0.0522105 0.0240414 0.0802308 0.0591973 0.0400336 0.0249454 0.0103959 0.0076744 0.00518757 0.00323628 0.0797411 0.0356646 0.0158059 0.0101677 0.0246958 0.0110508 0.00489312 0.00315602 0.837669 0.473165 0.248695 0.11556 0.566942 0.320099 0.168339 0.0780483 0.831254 0.799473 0.700186 0.566159 0.118001 0.113665 0.0994424 0.0805779 0.566942 0.320099 0.168339 0.0780483 0.175764 0.0991046 0.0522081 0.0240468 0.564652 0.416556 0.28175 0.175493 0.0802295 0.0591979 0.0400331 0.0249466 0.117858 0.0527081 0.0233642 0.0150229 0.0797385 0.0356657 0.0158047 0.0101702 0.118001 0.113665 0.0994424 0.0805779 0.0152552 0.0147523 0.0128709 0.0104851 0.0797385 0.0356657 0.0158047 0.0101702 0.0246952 0.0110511 0.00489284 0.00315665 0.0802295 0.0591979 0.0400331 0.0249466 0.0103959 0.0076744 0.00518757 0.00323628 0.175764 0.0991046 0.0522081 0.0240468 0.0250217 0.014062 0.00743957 0.00337149 0.175769 0.099102 0.0522105 0.0240414 0.0250236 0.0140611 0.00744041 0.00336961 0.0250217 0.014062 0.00743957 0.00337149 0.00325891 0.0018153 0.000971439 0.00042086 0.0246958 0.0110508 0.00489312 0.00315602 0.00350715 0.00157153 0.00069428 0.000450624 0.0246952 0.0110511 0.00489284 0.00315665 0.00350708 0.00157157 0.000694253 0.000450691 0.0250236 0.0140611 0.00744041 0.00336961 0.00325892 0.0018153 0.000971441 0.000420857 0.00350708 0.00157157 0.000694253 0.000450691 0.000452128 0.000203261 8.40132e-05 4.61815e-05 0.00350715 0.00157153 0.00069428 0.000450624 0.000452139 0.000203254 8.40174e-05 4.61705e-05 3.31227e-05 7.83384e-05 0.000202419 0.000450299 0.000239672 0.000611119 0.00155381 0.00348811 3.00255e-05 4.46818e-05 0.000102245 0.000226708 0.000449221 0.000693568 0.00156814 0.00350167 0.000239672 0.000611119 0.00155381 0.00348811 0.00163984 0.00432002 0.0109122 0.0245903 0.000203801 0.000489013 0.00090425 0.00163627 0.00338883 0.00741536 0.0140445 0.0249496 0.000420555 0.000971321 0.00181533 0.00325883 0.0033611 0.0074397 0.0140598 0.0250257 0.000449221 0.000693568 0.00156814 0.00350167 0.00315416 0.00489386 0.0110498 0.0246985 0.0033611 0.0074397 0.0140598 0.0250257 0.0239919 0.0521996 0.0990976 0.175772 0.00338883 0.00741536 0.0140445 0.0249496 0.0241151 0.0521802 0.0991317 0.175694 0.00163984 0.00432002 0.0109122 0.0245903 0.00523392 0.0139735 0.0351995 0.0794399 0.00161902 0.00259337 0.00383782 0.00519659 0.0248913 0.0399588 0.0590809 0.0800808 0.00523392 0.0139735 0.0351995 0.0794399 0.00770567 0.0206673 0.0520102 0.117438 0.0052619 0.00642624 0.00738574 0.00760869 0.0803562 0.0992783 0.113419 0.11784 0.0239919 0.0521996 0.0990976 0.175772 0.0778972 0.168299 0.320089 0.566943 0.0248913 0.0399588 0.0590809 0.0800808 0.175468 0.281759 0.416545 0.56467 0.0778972 0.168299 0.320089 0.566943 0.115361 0.248627 0.473161 0.837647 0.0803562 0.0992783 0.113419 0.11784 0.565971 0.700259 0.799394 0.83144 0.00323629 0.00518756 0.00767438 0.0103958 0.0249463 0.0400332 0.0591977 0.0802296 0.00315416 0.00489386 0.0110498 0.0246985 0.0101673 0.0158058 0.035664 0.0797427 0.0249463 0.0400332 0.0591977 0.0802296 0.175489 0.281752 0.416554 0.564656 0.0241151 0.0521802 0.0991317 0.175694 0.078134 0.168304 0.320134 0.566856 0.010485 0.0128708 0.0147523 0.0152552 0.08058 0.0994411 0.113666 0.117999 0.0101673 0.0158058 0.035664 0.0797427 0.0150229 0.0233641 0.0527081 0.117858 0.08058 0.0994411 0.113666 0.117999 0.566168 0.700182 0.799477 0.831245 0.078134 0.168304 0.320134 0.566856 0.11556 0.248695 0.473165 0.837669 0.175489 0.281752 0.416554 0.564656 0.566389 0.909533 1.3446 1.82281 0.175468 0.281759 0.416545 0.56467 0.566363 0.909545 1.34459 1.82283 0.566389 0.909533 1.3446 1.82281 0.837013 1.34422 1.98716 2.69398 0.565971 0.700259 0.799394 0.83144 1.8262 2.26083 2.58012 2.68471 0.566168 0.700182 0.799477 0.831245 1.82644 2.26073 2.58022 2.68446 0.566363 0.909545 1.34459 1.82283 0.837016 1.34422 1.98716 2.69398 1.82644 2.26073 2.58022 2.68446 2.6987 3.34141 3.81306 3.96799 1.8262 2.26083 2.58012 2.68471 2.6987 3.34141 3.81306 3.96799 0.00770567 0.0206673 0.0520102 0.117438 0.00521879 0.0139798 0.0351931 0.0794564 0.0076086 0.00738539 0.0064257 0.00526213 0.117841 0.113418 0.0992782 0.0803559 0.00521879 0.0139798 0.0351931 0.0794564 0.00162765 0.00432522 0.010907 0.0246032 0.00519582 0.00383811 0.00259301 0.00161972 0.0800782 0.0590825 0.0399576 0.0248942 0.115361 0.248627 0.473161 0.837647 0.0780155 0.168251 0.320138 0.566825 0.117841 0.113418 0.0992782 0.0803559 0.831446 0.799391 0.70026 0.565966 0.0780155 0.168251 0.320138 0.566825 0.0240862 0.0521598 0.0991364 0.175677 0.0800782 0.0590825 0.0399576 0.0248942 0.564658 0.416551 0.281753 0.17548 0.00162765 0.00432522 0.010907 0.0246032 0.000234864 0.000611912 0.0015489 0.00348589 0.00163731 0.000903897 0.000489606 0.000202338 0.0249513 0.0140436 0.00741462 0.00338044 0.000234864 0.000611912 0.0015489 0.00348589 1.4047e-05 4.02262e-05 0.000100095 0.000227447 0.000224208 0.000101734 3.86272e-05 1.75486e-05 0.00348511 0.00154909 0.000611332 0.000235621 0.0240862 0.0521598 0.0991364 0.175677 0.00338816 0.00741083 0.0140469 0.0249437 0.0249513 0.0140436 0.00741462 0.00338044 0.175697 0.0991274 0.0521697 0.0240656 0.00338816 0.00741083 0.0140469 0.0249437 0.000228586 0.000477586 0.000915787 0.00161119 0.00348511 0.00154909 0.000611332 0.000235621 0.0246018 0.0109076 0.00432462 0.00162932 0.837013 1.34422 1.98716 2.69398 0.566359 0.909546 1.34459 1.82283 0.831446 0.799391 0.70026 0.565966 2.68472 2.58011 2.26084 1.82618 0.566359 0.909546 1.34459 1.82283 0.175465 0.28176 0.416544 0.564673 0.564658 0.416551 0.281753 0.17548 1.8228 1.3446 0.909531 0.56639 2.6987 3.34141 3.81306 3.96799 1.82615 2.26085 2.5801 2.68475 2.68472 2.58011 2.26084 1.82618 3.96802 3.81305 3.34143 2.69867 1.82615 2.26085 2.5801 2.68475 0.565939 0.700274 0.79938 0.831473 1.8228 1.3446 0.909531 0.56639 2.69395 1.98718 1.3442 0.837046 0.175465 0.28176 0.416544 0.564673 0.0248904 0.0399592 0.0590805 0.0800818 0.175697 0.0991274 0.0521697 0.0240656 0.566852 0.320125 0.168263 0.077988 0.0248904 0.0399592 0.0590805 0.0800818 0.00161497 0.00259532 0.0038356 0.005202 0.0246018 0.0109076 0.00432462 0.00162932 0.0794559 0.0351932 0.0139798 0.0052191 0.565939 0.700274 0.79938 0.831473 0.0803429 0.0992845 0.113413 0.117854 0.566852 0.320125 0.168263 0.077988 0.83765 0.473159 0.248627 0.115359 0.0803429 0.0992845 0.113413 0.117854 0.00519395 0.00645681 0.00735472 0.00767529 0.0794559 0.0351932 0.0139798 0.0052191 0.117442 0.0520075 0.0206684 0.00770098 0.0152552 0.0147523 0.0128709 0.0104851 0.118001 0.113665 0.0994424 0.0805779 0.0150229 0.0233641 0.0527081 0.117858 0.0101702 0.0158047 0.0356657 0.0797385 0.118001 0.113665 0.0994424 0.0805779 0.831254 0.799473 0.700186 0.566159 0.11556 0.248695 0.473165 0.837669 0.0780483 0.168339 0.320099 0.566942 0.0103959 0.0076744 0.00518757 0.00323628 0.0802294 0.0591979 0.040033 0.0249465 0.0101702 0.0158047 0.0356657 0.0797385 0.00315663 0.00489282 0.0110511 0.0246951 0.0802294 0.0591979 0.040033 0.0249465 0.564652 0.416556 0.28175 0.175493 0.0780483 0.168339 0.320099 0.566942 0.0240468 0.0522078 0.0991042 0.175763 0.831254 0.799473 0.700186 0.566159 2.68448 2.58021 2.26074 1.82642 0.837016 1.34422 1.98716 2.69398 0.566387 0.909535 1.3446 1.82281 2.68448 2.58021 2.26074 1.82642 3.96802 3.81305 3.34143 2.69867 2.6987 3.34141 3.81306 3.96799 1.82639 2.26075 2.5802 2.6845 0.564652 0.416556 0.28175 0.175493 1.82279 1.34461 0.909525 0.566406 0.566387 0.909535 1.3446 1.82281 0.175486 0.281752 0.416551 0.564656 1.82279 1.34461 0.909525 0.566406 2.69395 1.98718 1.3442 0.837046 1.82639 2.26075 2.5802 2.6845 0.566129 0.700196 0.799457 0.83128 0.00325891 0.0018153 0.000971439 0.00042086 0.0250225 0.0140611 0.00743814 0.00336412 0.00315663 0.00489282 0.0110511 0.0246951 0.000450407 0.000693333 0.00156848 0.00350059 0.0250225 0.0140611 0.00743814 0.00336412 0.175764 0.0991014 0.0521957 0.0240007 0.0240468 0.0522078 0.0991042 0.175763 0.00336606 0.00742472 0.0140354 0.0249724 0.000452128 0.000203261 8.40132e-05 4.61815e-05 0.00348881 0.00155341 0.000611569 0.000239293 0.000450407 0.000693333 0.00156848 0.00350059 4.27059e-05 5.0557e-05 0.000102941 0.000228881 0.00348881 0.00155341 0.000611569 0.000239293 0.0245928 0.0109113 0.00432125 0.00163759 0.00336606 0.00742472 0.0140354 0.0249724 0.000211074 0.000485908 0.000907714 0.00162948 0.175764 0.0991014 0.0521957 0.0240007 0.566934 0.320093 0.168295 0.0779073 0.175486 0.281752 0.416551 0.564656 0.0248971 0.0399566 0.0590831 0.0800765 0.566934 0.320093 0.168295 0.0779073 0.837649 0.473159 0.248627 0.115359 0.566129 0.700196 0.799457 0.83128 0.0804089 0.0992571 0.11344 0.117787 0.0245928 0.0109113 0.00432125 0.00163759 0.0794447 0.0351979 0.0139757 0.00522958 0.0248971 0.0399566 0.0590831 0.0800765 0.00161808 0.00259384 0.00383717 0.00519804 0.0794447 0.0351979 0.0139757 0.00522958 0.117442 0.0520077 0.0206687 0.00770092 0.0804089 0.0992571 0.11344 0.117787 0.00524139 0.00643595 0.00737556 0.00762869 3.96802 3.81305 3.34143 2.69867 2.68477 2.58009 2.26086 1.82613 3.96802 3.81305 3.34143 2.69867 2.68452 2.58019 2.26076 1.82637 2.68477 2.58009 2.26086 1.82613 0.831479 0.799376 0.700275 0.565933 2.69395 1.98718 1.3442 0.837046 1.82279 1.34461 0.909527 0.566403 2.69395 1.98718 1.3442 0.837046 1.8228 1.3446 0.909532 0.566387 2.68452 2.58019 2.26076 1.82637 0.831288 0.799454 0.7002 0.56612 1.8228 1.3446 0.909532 0.566387 0.56466 0.41655 0.281754 0.175477 1.82279 1.34461 0.909527 0.566403 0.564653 0.416553 0.28175 0.175489 0.831479 0.799376 0.700275 0.565933 0.117854 0.113412 0.0992847 0.0803428 0.83765 0.473159 0.248627 0.115359 0.566917 0.3201 0.168288 0.0779241 0.117854 0.113412 0.0992847 0.0803428 0.00767529 0.00735472 0.00645681 0.00519395 0.117442 0.0520075 0.0206684 0.00770098 0.0794471 0.0351971 0.0139769 0.00522725 0.56466 0.41655 0.281754 0.175477 0.0800795 0.0590822 0.0399581 0.0248932 0.566917 0.3201 0.168288 0.0779241 0.175749 0.0991072 0.052189 0.0240146 0.0800795 0.0590822 0.0399581 0.0248932 0.005202 0.0038356 0.00259532 0.00161497 0.0794471 0.0351971 0.0139769 0.00522725 0.0245945 0.0109105 0.00432218 0.00163581 0.837649 0.473159 0.248627 0.115359 0.566836 0.320133 0.168256 0.0780044 0.831288 0.799454 0.7002 0.56612 0.117789 0.113439 0.0992582 0.0804067 0.566836 0.320133 0.168256 0.0780044 0.175684 0.0991331 0.0521639 0.0240781 0.564653 0.416553 0.28175 0.175489 0.0800761 0.0590832 0.0399564 0.0248973 0.117442 0.0520077 0.0206687 0.00770092 0.0794583 0.0351923 0.0139808 0.00521708 0.117789 0.113439 0.0992582 0.0804067 0.00762904 0.00737542 0.00643614 0.00524102 0.0794583 0.0351923 0.0139808 0.00521708 0.0246034 0.0109069 0.00432531 0.00162758 0.0800761 0.0590832 0.0399564 0.0248973 0.00519807 0.00383716 0.00259385 0.00161804 0.175684 0.0991331 0.0521639 0.0240781 0.0249462 0.0140459 0.0074121 0.00338543 0.175749 0.0991072 0.052189 0.0240146 0.0249682 0.0140367 0.00742096 0.00336357 0.0249462 0.0140459 0.0074121 0.00338543 0.00161119 0.000915787 0.000477586 0.000228586 0.0245945 0.0109105 0.00432218 0.00163581 0.00348266 0.00154996 0.000610496 0.000237753 0.0246034 0.0109069 0.00432531 0.00162758 0.00348564 0.00154873 0.000611638 0.000234858 0.0249682 0.0140367 0.00742096 0.00336357 0.00162861 0.000908027 0.000485245 0.000211053 0.00348564 0.00154873 0.000611638 0.000234858 0.000227447 0.000100095 4.02262e-05 1.4047e-05 0.00348266 0.00154996 0.000610496 0.000237753 0.000225221 0.00010111 3.9194e-05 1.63817e-05 2.99472e-05 4.47339e-05 0.000102222 0.000226852 0.000448834 0.000693708 0.00156787 0.00350198 3.31337e-05 7.83494e-05 0.00020243 0.00045031 0.000238394 0.000611767 0.0015532 0.00348934 0.000448834 0.000693708 0.00156787 0.00350198 