# vtk DataFile Version 3.0
#This file was generated by the deal.II library on 2020/8/22 at 21:54:05
ASCII
DATASET UNSTRUCTURED_GRID

POINTS 4096 double
-1 -1 0
-0.958333 -1 0
-0.916667 -1 0
-0.875 -1 0
-1 -0.958333 0
-0.958333 -0.958333 0
-0.916667 -0.958333 0
-0.875 -0.958333 0
-1 -0.916667 0
-0.958333 -0.916667 0
-0.916667 -0.916667 0
-0.875 -0.916667 0
-1 -0.875 0
-0.958333 -0.875 0
-0.916667 -0.875 0
-0.875 -0.875 0
-0.875 -1 0
-0.833333 -1 0
-0.791667 -1 0
-0.75 -1 0
-0.875 -0.958333 0
-0.833333 -0.958333 0
-0.791667 -0.958333 0
-0.75 -0.958333 0
-0.875 -0.916667 0
-0.833333 -0.916667 0
-0.791667 -0.916667 0
-0.75 -0.916667 0
-0.875 -0.875 0
-0.833333 -0.875 0
-0.791667 -0.875 0
-0.75 -0.875 0
-1 -0.875 0
-0.958333 -0.875 0
-0.916667 -0.875 0
-0.875 -0.875 0
-1 -0.833333 0
-0.958333 -0.833333 0
-0.916667 -0.833333 0
-0.875 -0.833333 0
-1 -0.791667 0
-0.958333 -0.791667 0
-0.916667 -0.791667 0
-0.875 -0.791667 0
-1 -0.75 0
-0.958333 -0.75 0
-0.916667 -0.75 0
-0.875 -0.75 0
-0.875 -0.875 0
-0.833333 -0.875 0
-0.791667 -0.875 0
-0.75 -0.875 0
-0.875 -0.833333 0
-0.833333 -0.833333 0
-0.791667 -0.833333 0
-0.75 -0.833333 0
-0.875 -0.791667 0
-0.833333 -0.791667 0
-0.791667 -0.791667 0
-0.75 -0.791667 0
-0.875 -0.75 0
-0.833333 -0.75 0
-0.791667 -0.75 0
-0.75 -0.75 0
-0.75 -1 0
-0.708333 -1 0
-0.666667 -1 0
-0.625 -1 0
-0.75 -0.958333 0
-0.708333 -0.958333 0
-0.666667 -0.958333 0
-0.625 -0.958333 0
-0.75 -0.916667 0
-0.708333 -0.916667 0
-0.666667 -0.916667 0
-0.625 -0.916667 0
-0.75 -0.875 0
-0.708333 -0.875 0
-0.666667 -0.875 0
-0.625 -0.875 0
-0.625 -1 0
-0.583333 -1 0
-0.541667 -1 0
-0.5 -1 0
-0.625 -0.958333 0
-0.583333 -0.958333 0
-0.541667 -0.958333 0
-0.5 -0.958333 0
-0.625 -0.916667 0
-0.583333 -0.916667 0
-0.541667 -0.916667 0
-0.5 -0.916667 0
-0.625 -0.875 0
-0.583333 -0.875 0
-0.541667 -0.875 0
-0.5 -0.875 0
-0.75 -0.875 0
-0.708333 -0.875 0
-0.666667 -0.875 0
-0.625 -0.875 0
-0.75 -0.833333 0
-0.708333 -0.833333 0
-0.666667 -0.833333 0
-0.625 -0.833333 0
-0.75 -0.791667 0
-0.708333 -0.791667 0
-0.666667 -0.791667 0
-0.625 -0.791667 0
-0.75 -0.75 0
-0.708333 -0.75 0
-0.666667 -0.75 0
-0.625 -0.75 0
-0.625 -0.875 0
-0.583333 -0.875 0
-0.541667 -0.875 0
-0.5 -0.875 0
-0.625 -0.833333 0
-0.583333 -0.833333 0
-0.541667 -0.833333 0
-0.5 -0.833333 0
-0.625 -0.791667 0
-0.583333 -0.791667 0
-0.541667 -0.791667 0
-0.5 -0.791667 0
-0.625 -0.75 0
-0.583333 -0.75 0
-0.541667 -0.75 0
-0.5 -0.75 0
-1 -0.75 0
-0.958333 -0.75 0
-0.916667 -0.75 0
-0.875 -0.75 0
-1 -0.708333 0
-0.958333 -0.708333 0
-0.916667 -0.708333 0
-0.875 -0.708333 0
-1 -0.666667 0
-0.958333 -0.666667 0
-0.916667 -0.666667 0
-0.875 -0.666667 0
-1 -0.625 0
-0.958333 -0.625 0
-0.916667 -0.625 0
-0.875 -0.625 0
-0.875 -0.75 0
-0.833333 -0.75 0
-0.791667 -0.75 0
-0.75 -0.75 0
-0.875 -0.708333 0
-0.833333 -0.708333 0
-0.791667 -0.708333 0
-0.75 -0.708333 0
-0.875 -0.666667 0
-0.833333 -0.666667 0
-0.791667 -0.666667 0
-0.75 -0.666667 0
-0.875 -0.625 0
-0.833333 -0.625 0
-0.791667 -0.625 0
-0.75 -0.625 0
-1 -0.625 0
-0.958333 -0.625 0
-0.916667 -0.625 0
-0.875 -0.625 0
-1 -0.583333 0
-0.958333 -0.583333 0
-0.916667 -0.583333 0
-0.875 -0.583333 0
-1 -0.541667 0
-0.958333 -0.541667 0
-0.916667 -0.541667 0
-0.875 -0.541667 0
-1 -0.5 0
-0.958333 -0.5 0
-0.916667 -0.5 0
-0.875 -0.5 0
-0.875 -0.625 0
-0.833333 -0.625 0
-0.791667 -0.625 0
-0.75 -0.625 0
-0.875 -0.583333 0
-0.833333 -0.583333 0
-0.791667 -0.583333 0
-0.75 -0.583333 0
-0.875 -0.541667 0
-0.833333 -0.541667 0
-0.791667 -0.541667 0
-0.75 -0.541667 0
-0.875 -0.5 0
-0.833333 -0.5 0
-0.791667 -0.5 0
-0.75 -0.5 0
-0.75 -0.75 0
-0.708333 -0.75 0
-0.666667 -0.75 0
-0.625 -0.75 0
-0.75 -0.708333 0
-0.708333 -0.708333 0
-0.666667 -0.708333 0
-0.625 -0.708333 0
-0.75 -0.666667 0
-0.708333 -0.666667 0
-0.666667 -0.666667 0
-0.625 -0.666667 0
-0.75 -0.625 0
-0.708333 -0.625 0
-0.666667 -0.625 0
-0.625 -0.625 0
-0.625 -0.75 0
-0.583333 -0.75 0
-0.541667 -0.75 0
-0.5 -0.75 0
-0.625 -0.708333 0
-0.583333 -0.708333 0
-0.541667 -0.708333 0
-0.5 -0.708333 0
-0.625 -0.666667 0
-0.583333 -0.666667 0
-0.541667 -0.666667 0
-0.5 -0.666667 0
-0.625 -0.625 0
-0.583333 -0.625 0
-0.541667 -0.625 0
-0.5 -0.625 0
-0.75 -0.625 0
-0.708333 -0.625 0
-0.666667 -0.625 0
-0.625 -0.625 0
-0.75 -0.583333 0
-0.708333 -0.583333 0
-0.666667 -0.583333 0
-0.625 -0.583333 0
-0.75 -0.541667 0
-0.708333 -0.541667 0
-0.666667 -0.541667 0
-0.625 -0.541667 0
-0.75 -0.5 0
-0.708333 -0.5 0
-0.666667 -0.5 0
-0.625 -0.5 0
-0.625 -0.625 0
-0.583333 -0.625 0
-0.541667 -0.625 0
-0.5 -0.625 0
-0.625 -0.583333 0
-0.583333 -0.583333 0
-0.541667 -0.583333 0
-0.5 -0.583333 0
-0.625 -0.541667 0
-0.583333 -0.541667 0
-0.541667 -0.541667 0
-0.5 -0.541667 0
-0.625 -0.5 0
-0.583333 -0.5 0
-0.541667 -0.5 0
-0.5 -0.5 0
-0.5 -1 0
-0.458333 -1 0
-0.416667 -1 0
-0.375 -1 0
-0.5 -0.958333 0
-0.458333 -0.958333 0
-0.416667 -0.958333 0
-0.375 -0.958333 0
-0.5 -0.916667 0
-0.458333 -0.916667 0
-0.416667 -0.916667 0
-0.375 -0.916667 0
-0.5 -0.875 0
-0.458333 -0.875 0
-0.416667 -0.875 0
-0.375 -0.875 0
-0.375 -1 0
-0.333333 -1 0
-0.291667 -1 0
-0.25 -1 0
-0.375 -0.958333 0
-0.333333 -0.958333 0
-0.291667 -0.958333 0
-0.25 -0.958333 0
-0.375 -0.916667 0
-0.333333 -0.916667 0
-0.291667 -0.916667 0
-0.25 -0.916667 0
-0.375 -0.875 0
-0.333333 -0.875 0
-0.291667 -0.875 0
-0.25 -0.875 0
-0.5 -0.875 0
-0.458333 -0.875 0
-0.416667 -0.875 0
-0.375 -0.875 0
-0.5 -0.833333 0
-0.458333 -0.833333 0
-0.416667 -0.833333 0
-0.375 -0.833333 0
-0.5 -0.791667 0
-0.458333 -0.791667 0
-0.416667 -0.791667 0
-0.375 -0.791667 0
-0.5 -0.75 0
-0.458333 -0.75 0
-0.416667 -0.75 0
-0.375 -0.75 0
-0.375 -0.875 0
-0.333333 -0.875 0
-0.291667 -0.875 0
-0.25 -0.875 0
-0.375 -0.833333 0
-0.333333 -0.833333 0
-0.291667 -0.833333 0
-0.25 -0.833333 0
-0.375 -0.791667 0
-0.333333 -0.791667 0
-0.291667 -0.791667 0
-0.25 -0.791667 0
-0.375 -0.75 0
-0.333333 -0.75 0
-0.291667 -0.75 0
-0.25 -0.75 0
-0.25 -1 0
-0.208333 -1 0
-0.166667 -1 0
-0.125 -1 0
-0.25 -0.958333 0
-0.208333 -0.958333 0
-0.166667 -0.958333 0
-0.125 -0.958333 0
-0.25 -0.916667 0
-0.208333 -0.916667 0
-0.166667 -0.916667 0
-0.125 -0.916667 0
-0.25 -0.875 0
-0.208333 -0.875 0
-0.166667 -0.875 0
-0.125 -0.875 0
-0.125 -1 0
-0.0833333 -1 0
-0.0416667 -1 0
0 -1 0
-0.125 -0.958333 0
-0.0833333 -0.958333 0
-0.0416667 -0.958333 0
0 -0.958333 0
-0.125 -0.916667 0
-0.0833333 -0.916667 0
-0.0416667 -0.916667 0
0 -0.916667 0
-0.125 -0.875 0
-0.0833333 -0.875 0
-0.0416667 -0.875 0
0 -0.875 0
-0.25 -0.875 0
-0.208333 -0.875 0
-0.166667 -0.875 0
-0.125 -0.875 0
-0.25 -0.833333 0
-0.208333 -0.833333 0
-0.166667 -0.833333 0
-0.125 -0.833333 0
-0.25 -0.791667 0
-0.208333 -0.791667 0
-0.166667 -0.791667 0
-0.125 -0.791667 0
-0.25 -0.75 0
-0.208333 -0.75 0
-0.166667 -0.75 0
-0.125 -0.75 0
-0.125 -0.875 0
-0.0833333 -0.875 0
-0.0416667 -0.875 0
0 -0.875 0
-0.125 -0.833333 0
-0.0833333 -0.833333 0
-0.0416667 -0.833333 0
0 -0.833333 0
-0.125 -0.791667 0
-0.0833333 -0.791667 0
-0.0416667 -0.791667 0
0 -0.791667 0
-0.125 -0.75 0
-0.0833333 -0.75 0
-0.0416667 -0.75 0
0 -0.75 0
-0.5 -0.75 0
-0.458333 -0.75 0
-0.416667 -0.75 0
-0.375 -0.75 0
-0.5 -0.708333 0
-0.458333 -0.708333 0
-0.416667 -0.708333 0
-0.375 -0.708333 0
-0.5 -0.666667 0
-0.458333 -0.666667 0
-0.416667 -0.666667 0
-0.375 -0.666667 0
-0.5 -0.625 0
-0.458333 -0.625 0
-0.416667 -0.625 0
-0.375 -0.625 0
-0.375 -0.75 0
-0.333333 -0.75 0
-0.291667 -0.75 0
-0.25 -0.75 0
-0.375 -0.708333 0
-0.333333 -0.708333 0
-0.291667 -0.708333 0
-0.25 -0.708333 0
-0.375 -0.666667 0
-0.333333 -0.666667 0
-0.291667 -0.666667 0
-0.25 -0.666667 0
-0.375 -0.625 0
-0.333333 -0.625 0
-0.291667 -0.625 0
-0.25 -0.625 0
-0.5 -0.625 0
-0.458333 -0.625 0
-0.416667 -0.625 0
-0.375 -0.625 0
-0.5 -0.583333 0
-0.458333 -0.583333 0
-0.416667 -0.583333 0
-0.375 -0.583333 0
-0.5 -0.541667 0
-0.458333 -0.541667 0
-0.416667 -0.541667 0
-0.375 -0.541667 0
-0.5 -0.5 0
-0.458333 -0.5 0
-0.416667 -0.5 0
-0.375 -0.5 0
-0.375 -0.625 0
-0.333333 -0.625 0
-0.291667 -0.625 0
-0.25 -0.625 0
-0.375 -0.583333 0
-0.333333 -0.583333 0
-0.291667 -0.583333 0
-0.25 -0.583333 0
-0.375 -0.541667 0
-0.333333 -0.541667 0
-0.291667 -0.541667 0
-0.25 -0.541667 0
-0.375 -0.5 0
-0.333333 -0.5 0
-0.291667 -0.5 0
-0.25 -0.5 0
-0.25 -0.75 0
-0.208333 -0.75 0
-0.166667 -0.75 0
-0.125 -0.75 0
-0.25 -0.708333 0
-0.208333 -0.708333 0
-0.166667 -0.708333 0
-0.125 -0.708333 0
-0.25 -0.666667 0
-0.208333 -0.666667 0
-0.166667 -0.666667 0
-0.125 -0.666667 0
-0.25 -0.625 0
-0.208333 -0.625 0
-0.166667 -0.625 0
-0.125 -0.625 0
-0.125 -0.75 0
-0.0833333 -0.75 0
-0.0416667 -0.75 0
0 -0.75 0
-0.125 -0.708333 0
-0.0833333 -0.708333 0
-0.0416667 -0.708333 0
0 -0.708333 0
-0.125 -0.666667 0
-0.0833333 -0.666667 0
-0.0416667 -0.666667 0
0 -0.666667 0
-0.125 -0.625 0
-0.0833333 -0.625 0
-0.0416667 -0.625 0
0 -0.625 0
-0.25 -0.625 0
-0.208333 -0.625 0
-0.166667 -0.625 0
-0.125 -0.625 0
-0.25 -0.583333 0
-0.208333 -0.583333 0
-0.166667 -0.583333 0
-0.125 -0.583333 0
-0.25 -0.541667 0
-0.208333 -0.541667 0
-0.166667 -0.541667 0
-0.125 -0.541667 0
-0.25 -0.5 0
-0.208333 -0.5 0
-0.166667 -0.5 0
-0.125 -0.5 0
-0.125 -0.625 0
-0.0833333 -0.625 0
-0.0416667 -0.625 0
0 -0.625 0
-0.125 -0.583333 0
-0.0833333 -0.583333 0
-0.0416667 -0.583333 0
0 -0.583333 0
-0.125 -0.541667 0
-0.0833333 -0.541667 0
-0.0416667 -0.541667 0
0 -0.541667 0
-0.125 -0.5 0
-0.0833333 -0.5 0
-0.0416667 -0.5 0
0 -0.5 0
-1 -0.5 0
-0.958333 -0.5 0
-0.916667 -0.5 0
-0.875 -0.5 0
-1 -0.458333 0
-0.958333 -0.458333 0
-0.916667 -0.458333 0
-0.875 -0.458333 0
-1 -0.416667 0
-0.958333 -0.416667 0
-0.916667 -0.416667 0
-0.875 -0.416667 0
-1 -0.375 0
-0.958333 -0.375 0
-0.916667 -0.375 0
-0.875 -0.375 0
-0.875 -0.5 0
-0.833333 -0.5 0
-0.791667 -0.5 0
-0.75 -0.5 0
-0.875 -0.458333 0
-0.833333 -0.458333 0
-0.791667 -0.458333 0
-0.75 -0.458333 0
-0.875 -0.416667 0
-0.833333 -0.416667 0
-0.791667 -0.416667 0
-0.75 -0.416667 0
-0.875 -0.375 0
-0.833333 -0.375 0
-0.791667 -0.375 0
-0.75 -0.375 0
-1 -0.375 0
-0.958333 -0.375 0
[...]
POINT_DATA 4096
VECTORS gradient double
-0.000334497 -0.000338682 0
-0.000945825 -0.000986976 0
-0.00214573 -0.00247797 0
-0.00433698 -0.00564098 0
-0.000991624 -0.000946045 0
-0.00247043 -0.00247209 0
-0.00560224 -0.00624332 0
-0.0114476 -0.0140554 0
-0.00247769 -0.00214402 0
-0.00624255 -0.00560699 0
-0.0141663 -0.0141675 0
-0.0289324 -0.0318989 0
-0.00565038 -0.0043295 0
-0.0140535 -0.0114509 0
-0.0318911 -0.0289295 0
-0.0652134 -0.0652179 0
-0.00449482 -0.00564991 0
-0.00802143 -0.0118861 0
-0.0134261 -0.0227969 0
-0.0203577 -0.0401901 0
-0.0116872 -0.0136936 0
-0.0213352 -0.0298448 0
-0.0358617 -0.0566103 0
-0.0543566 -0.100446 0
-0.0294051 -0.0310727 0
-0.0538653 -0.067748 0
-0.0904028 -0.128506 0
-0.136723 -0.228029 0
-0.0661553 -0.0636854 0
-0.12153 -0.138431 0
-0.204052 -0.262888 0
-0.308557 -0.466247 0
-0.00569416 -0.00450747 0
-0.0136772 -0.011709 0
-0.0310215 -0.0294286 0
-0.0636096 -0.0662032 0
-0.0118734 -0.00800881 0
-0.0298517 -0.0213351 0
-0.067767 -0.0538575 0
-0.138472 -0.12153 0
-0.0228216 -0.013408 0
-0.0566041 -0.0358553 0
-0.128481 -0.0903876 0
-0.262862 -0.20404 0
-0.0401607 -0.0203712 0
-0.100462 -0.0543742 0
-0.228071 -0.136746 0
-0.466333 -0.308601 0
-0.0645436 -0.0646618 0
-0.118852 -0.140284 0
-0.199964 -0.266125 0
-0.302847 -0.471559 0
-0.140258 -0.11895 0
-0.257804 -0.257742 0
-0.432462 -0.489923 0
-0.653263 -0.868343 0
-0.266004 -0.20007 0
-0.489896 -0.432376 0
-0.822361 -0.822378 0
-1.24259 -1.45677 0
-0.471517 -0.303014 0
-0.868473 -0.653268 0
-1.45694 -1.24274 0
-2.19998 -2.19997 0
-0.0201613 -0.0402661 0
-0.0271107 -0.0647545 0
-0.0319412 -0.0957602 0
-0.0324418 -0.129922 0
-0.054024 -0.10026 0
-0.072809 -0.160962 0
-0.0859961 -0.237965 0
-0.0874919 -0.322554 0
-0.136023 -0.227606 0
-0.183166 -0.365401 0
-0.216258 -0.540208 0
-0.219983 -0.732233 0
-0.307111 -0.46553 0
-0.413654 -0.747544 0
-0.488519 -1.10526 0
-0.497041 -1.49833 0
-0.0320915 -0.12977 0
-0.0269421 -0.161288 0
-0.0154272 -0.183783 0
0.000357135 -0.191733 0
-0.0869646 -0.323499 0
-0.0725227 -0.399933 0
-0.0414123 -0.456738 0
0.000648275 -0.474778 0
-0.218946 -0.734393 0
-0.182171 -0.907864 0
-0.103985 -1.03681 0
0.00125443 -1.07771 0
-0.494979 -1.50223 0
-0.411476 -1.85802 0
-0.234786 -2.12154 0
0.00262355 -2.20601 0
-0.30142 -0.47084 0
-0.406455 -0.755585 0
-0.480404 -1.11659 0
-0.489037 -1.51314 0
-0.650423 -0.867272 0
-0.875588 -1.39278 0
-1.03374 -2.05919 0
-1.05157 -2.7916 0
-1.23747 -1.45531 0
-1.66648 -2.3372 0
-1.96813 -3.45532 0
-2.00253 -4.68437 0
-2.19133 -2.19816 0
-2.94991 -3.52972 0
-3.48312 -5.21753 0
-3.54348 -7.07281 0
-0.486995 -1.51705 0
-0.404932 -1.87592 0
-0.230957 -2.14161 0
0.00289567 -2.22675 0
-1.04767 -2.79793 0
-0.870271 -3.46206 0
-0.496558 -3.95217 0
0.0048187 -4.11076 0
-1.99567 -4.69381 0
-1.65716 -5.80979 0
-0.945323 -6.63112 0
0.00892705 -6.89887 0
-3.53217 -7.08569 0
-2.93188 -8.77193 0
-1.67252 -10.0103 0
0.0142976 -10.4162 0
-0.0402688 -0.0201513 0
-0.100273 -0.0540183 0
-0.22763 -0.13601 0
-0.46559 -0.307095 0
-0.0647658 -0.0271166 0
-0.160959 -0.07281 0
-0.365385 -0.183173 0
-0.747534 -0.413661 0
-0.0957636 -0.0319571 0
-0.237974 -0.0859914 0
-0.540221 -0.216268 0
-1.10529 -0.488512 0
-0.12993 -0.0324595 0
-0.322547 -0.0874693 0
-0.732205 -0.219978 0
-1.49829 -0.49699 0
-0.470773 -0.301527 0
-0.867375 -0.650332 0
-1.45546 -1.23747 0
-2.19818 -2.19112 0
-0.755422 -0.406561 0
-1.39278 -0.875562 0
-2.33721 -1.66655 0
-3.52952 -2.94985 0
-1.11646 -0.480442 0
-2.05926 -1.03374 0
-3.45543 -1.96817 0
-5.21744 -3.48312 0
-1.51294 -0.488945 0
-2.79156 -1.05157 0
-4.68432 -2.00244 0
-7.07252 -3.54346 0
-0.129696 -0.0320852 0
-0.323524 -0.0869223 0
-0.734463 -0.218916 0
-1.50235 -0.49489 0
-0.161316 -0.0269836 0
-0.399927 -0.0725091 0
-0.907831 -0.182189 0
-1.85797 -0.411442 0
-0.183737 -0.01549 0
-0.45675 -0.0414132 0
-1.03685 -0.104027 0
-2.12157 -0.234781 0
-0.191778 0.000345963 0
-0.474765 0.000688475 0
-1.07765 0.00127262 0
-2.20588 0.00272011 0
-1.51701 -0.486867 0
-2.79812 -1.04761 0
-4.69401 -1.99552 0
-7.08567 -3.53208 0
-1.87575 -0.404764 0
-3.46203 -0.870357 0
-5.80976 -1.6571 0
-8.77175 -2.93206 0
-2.14158 -0.230738 0
-3.95226 -0.496726 0
-6.63121 -0.945278 0
-10.0103 -1.67285 0
-2.22663 0.00324613 0
-4.11064 0.00477224 0
-6.89872 0.00918077 0
-10.416 0.0141644 0
-2.18953 -2.18931 0
-2.94791 -3.51606 0
-3.48111 -5.19798 0
-3.54167 -7.04697 0
-3.51612 -2.9478 0
-4.73403 -4.73414 0
-5.59055 -6.99836 0
-5.68795 -9.4876 0
-5.1982 -3.48101 0
-6.99837 -5.59065 0
-8.26455 -8.26454 0
-8.40847 -11.2044 0
-7.04702 -3.54149 0
-9.48738 -5.68788 0
-11.2042 -8.40828 0
-11.3994 -11.3993 0
-3.53037 -7.05981 0
-2.93045 -8.74048 0
-1.67161 -9.97489 0
0.014581 -10.3796 0
-5.67076 -9.50355 0
-4.70601 -11.7678 0
-2.68423 -13.4282 0
0.0224812 -13.9747 0
-8.38416 -11.2221 0
-6.95651 -13.8977 0
-3.96768 -15.8578 0
0.0319803 -16.5046 0
-11.3675 -11.4168 0
-9.4307 -14.1397 0
-5.37865 -16.1333 0
0.0421706 -16.7921 0
-7.06013 -3.53011 0
-9.50354 -5.67063 0
-11.222 -8.38395 0
-11.4167 -11.3675 0
-8.74062 -2.93042 0
-11.7677 -4.70605 0
-13.8977 -6.95651 0
-14.14 -9.43076 0
-9.97514 -1.67172 0
-13.4282 -2.6843 0
-15.8577 -3.96778 0
-16.1334 -5.37868 0
-10.3796 0.0146371 0
-13.9746 0.0227058 0
-16.5047 0.0321091 0
-16.7925 0.0424125 0
-11.3848 -11.3849 0
-9.44485 -14.1012 0
-5.3871 -16.0901 0
0.0411385 -16.7474 0
-14.1014 -9.44525 0
-11.6979 -11.6977 0
-6.67142 -13.3468 0
0.0516459 -13.8919 0
-16.0899 -5.38763 0
-13.3467 -6.67122 0
-7.61186 -7.61205 0
0.0572799 -7.9219 0
-16.7475 0.0407902 0
-13.8923 0.0519443 0
-7.92243 0.0570392 0
0.0608739 0.0612214 0
-0.000444225 -0.191738 0
0.0153551 -0.183762 0
0.0268789 -0.161261 0
0.032064 -0.129721 0
-0.000611759 -0.474783 0
0.0414489 -0.456744 0
0.0725355 -0.399952 0
0.0869717 -0.323517 0
-0.00129077 -1.07772 0
0.103957 -1.03679 0
0.182134 -0.907837 0
0.218934 -0.734353 0
-0.00251871 -2.20603 0
0.234887 -2.12158 0
0.41152 -1.85811 0
0.495009 -1.50232 0
0.0324116 -0.129885 0
0.0319475 -0.0957217 0
0.0271381 -0.0647229 0
0.0201937 -0.0402404 0
0.0874944 -0.322567 0
0.0859967 -0.237992 0
0.0728015 -0.160976 0
0.0540048 -0.100284 0
0.219961 -0.732177 0
0.216265 -0.540185 0
0.183182 -0.36536 0
0.13603 -0.227605 0
0.497052 -1.49839 0
0.48852 -1.10538 0
0.413631 -0.747607 0
0.307051 -0.46563 0
-0.00218927 -2.22677 0
0.231597 -2.14152 0
0.405355 -1.87579 0
0.48719 -1.51688 0
-0.00507274 -4.11079 0
0.496335 -3.95217 0
0.870078 -3.4621 0
1.0476 -2.79795 0
-0.00863848 -6.89892 0
0.945584 -6.63114 0
1.6573 -5.80989 0
1.99576 -4.69386 0
-0.0149823 -10.4162 0
1.6719 -10.0101 0
2.93139 -8.77173 0
3.53201 -7.08535 0
0.489214 -1.51294 0
0.480372 -1.11646 0
0.406254 -0.755435 0
0.301112 -0.470786 0
1.05147 -2.79157 0
1.03377 -2.05925 0
0.875676 -1.39278 0
0.650497 -0.867358 0
2.00256 -4.68437 0
1.96814 -3.45546 0
1.66642 -2.33724 0
1.2373 -1.45547 0
3.54322 -7.07241 0
3.48319 -5.21731 0
2.95015 -3.52944 0
2.19153 -2.19812 0
0.0204013 -0.0401525 0
0.013457 -0.0227868 0
0.00804935 -0.0118716 0
0.00451259 -0.00566944 0
0.0543497 -0.100469 0
0.0358399 -0.0566173 0
0.0213134 -0.029862 0
0.0116512 -0.013713 0
0.13675 -0.22803 0
0.0904061 -0.128482 0
0.0538539 -0.0677663 0
0.029336 -0.0310997 0
0.308533 -0.46635 0
0.203984 -0.262915 0
0.121436 -0.138506 0
0.065942 -0.0637718 0
0.00435754 -0.00564521 0
0.00211268 -0.00251105 0
0.000815458 -0.00111076 0
-4.82514e-06 -0.000699813 0
0.0114188 -0.0141205 0
0.00547328 -0.00632254 0
0.00209788 -0.00280119 0
6.97017e-06 -0.00181112 0
0.0288793 -0.0320334 0
0.0138635 -0.0143407 0
0.00532121 -0.00635041 0
1.67126e-05 -0.00410445 0
0.0650334 -0.0655014 0
0.0311803 -0.0293008 0
0.011958 -0.0129688 0
5.03735e-05 -0.00836229 0
0.302573 -0.471506 0
0.199643 -0.266055 0
0.118545 -0.140307 0
0.0641785 -0.0647291 0
0.653398 -0.868429 0
0.432525 -0.489921 0
0.257773 -0.257839 0
0.139918 -0.119112 0
1.24252 -1.45692 0
0.822165 -0.822408 0
0.48956 -0.432546 0
0.265141 -0.200378 0
2.20033 -2.19991 0
1.45711 -1.24262 0
0.868306 -0.653411 0
0.470282 -0.303462 0
0.0632794 -0.0664662 0
0.0302264 -0.0298029 0
0.0115579 -0.0132467 0
6.92813e-05 -0.00857448 0
0.138196 -0.122012 0
0.0663418 -0.0545559 0
0.0254722 -0.0241482 0
9.59788e-05 -0.0155427 0
0.262117 -0.204828 0
0.125649 -0.0915857 0
0.0481945 -0.0405666 0
0.000223769 -0.0260908 0
0.465295 -0.309703 0
0.223259 -0.138561 0
0.0857081 -0.0614696 0
0.000365768 -0.0395521 0
-0.0146823 -10.3796 0
1.6715 -9.97507 0
2.93032 -8.74088 0
3.53037 -7.0602 0
-0.022386 -13.9748 0
2.68428 -13.4281 0
4.706 -11.7677 0
5.67083 -9.50328 0
-0.0319228 -16.5047 0
3.96767 -15.8578 0
6.95645 -13.8979 0
8.38423 -11.2222 0
-0.0420125 -16.7922 0
5.37869 -16.1331 0
9.43069 -14.1395 0
11.3676 -11.4164 0
3.54157 -7.0473 0
3.48115 -5.19848 0
2.94798 -3.51639 0
2.18949 -2.18972 0
5.68786 -9.48728 0
5.59058 -6.99824 0
4.73404 -4.73393 0
3.51596 -2.94783 0
8.40834 -11.2044 0
8.26459 -8.26473 0
6.99841 -5.5907 0
5.19801 -3.48124 0
11.3992 -11.3989 0
11.2042 -8.40802 0
9.48741 -5.68757 0
7.04676 -3.54141 0
-0.0431554 -16.7475 0
5.38518 -16.0901 0
9.44348 -14.1014 0
11.3844 -11.3849 0
-0.0507079 -13.892 0
6.67212 -13.3468 0
11.6984 -11.6978 0
14.1018 -9.44518 0
-0.0579956 -7.92196 0
7.61105 -7.6119 0
13.3461 -6.67101 0
16.0898 -5.38728 0
-0.0585378 0.0612126 0
7.92433 0.056655 0
13.8936 0.0512628 0
16.7483 0.040005 0
11.416 -11.3675 0
11.2222 -8.38406 0
9.50421 -5.67063 0
7.06076 -3.53024 0
14.1401 -9.43073 0
13.8977 -6.95658 0
11.7675 -4.70606 0
8.74001 -2.93053 0
16.1329 -5.37839 0
15.8578 -3.96749 0
13.4285 -2.68406 0
9.97519 -1.67154 0
16.7929 0.041544 0
16.5046 0.0313664 0
13.9739 0.0220383 0
10.3784 0.014252 0
2.19828 -2.1915 0
1.45539 -1.23765 0
0.866999 -0.650643 0
0.469389 -0.302054 0
3.52956 -2.94985 0
2.33699 -1.66648 0
1.39209 -0.875771 0
0.753112 -0.407202 0
5.2175 -3.4833 0
3.45516 -1.96824 0
2.05827 -1.03406 0
1.11305 -0.481283 0
7.07255 -3.54333 0
4.68392 -2.00235 0
2.79019 -1.05177 0
1.50826 -0.489783 0
0.464404 -0.308277 0
0.222728 -0.13785 0
0.0854737 -0.0610969 0
0.000386307 -0.0392779 0
0.745531 -0.415108 0
0.35748 -0.185621 0
0.137175 -0.0823006 0
0.000638346 -0.0528858 0
1.10232 -0.490241 0
0.52856 -0.219199 0
0.202839 -0.097197 0
0.000952103 -0.0624296 0
1.4942 -0.49867 0
0.716388 -0.222941 0
0.274916 -0.0988491 0
0.00130339 -0.0634656 0
7.08661 -3.53216 0
4.69454 -1.99554 0
2.79752 -1.04785 0
1.5129 -0.487704 0
8.77145 -2.9321 0
5.80898 -1.65718 0
3.46006 -0.870588 0
1.86972 -0.405557 0
10.0107 -1.67261 0
6.63108 -0.945208 0
3.95066 -0.496742 0
2.13515 -0.231201 0
10.4151 0.0138171 0
6.8973 0.00885535 0
4.10788 0.00468019 0
2.21911 0.00308684 0
1.49882 -0.496572 0
0.718978 -0.221848 0
0.276033 -0.0982453 0
0.00125899 -0.0630075 0
1.85268 -0.412893 0
0.8881 -0.184674 0
0.340781 -0.0819466 0
0.00163382 -0.0526503 0
2.11599 -0.235582 0
1.01463 -0.105411 0
0.389456 -0.0467935 0
0.00181404 -0.0300921 0
2.19927 0.00261209 0
1.05403 0.00130594 0
0.404422 0.000723289 0
0.00193501 0.000508785 0
-0.191772 -0.000512412 0
-0.47476 -0.000624521 0
-1.07764 -0.00134878 0
-2.20586 -0.00254827 0
-0.183705 0.0153334 0
-0.456766 0.041467 0
-1.03684 0.103954 0
-2.12161 0.234928 0
-0.16125 0.0268875 0
-0.399947 0.0725617 0
-0.90781 0.182157 0
-1.85801 0.411574 0
-0.129633 0.0320421 0
-0.323553 0.0869451 0
-0.734444 0.218897 0
-1.50241 0.494937 0
-2.22662 -0.0019637 0
-4.11061 -0.00531325 0
-6.89867 -0.00866582 0
-10.416 -0.0154911 0
-2.14164 0.231883 0
-3.95226 0.496233 0
-6.63123 0.945738 0
-10.0103 1.67167 0
-1.87583 0.405597 0
-3.46199 0.870047 0
-5.80974 1.65747 0
-8.77172 2.93129 0
-1.51715 0.487223 0
-2.7981 1.04745 0
-4.69405 1.99565 0
-7.08575 3.53169 0
-0.129853 0.0324184 0
-0.322582 0.0874973 0
-0.732203 0.21997 0
-1.49838 0.497058 0
-0.0956872 0.0319634 0
-0.237995 0.0859868 0
-0.540187 0.216267 0
-1.10533 0.488494 0
-0.0646961 0.0271631 0
-0.160987 0.0727888 0
-0.365379 0.18319 0
-0.747594 0.4136 0
-0.0402159 0.0202236 0
-0.100282 0.0539957 0
-0.227596 0.136048 0
-0.465577 0.307034 0
-1.5131 0.489326 0
-2.79159 1.05144 0
-4.6844 2.00264 0
-7.07265 3.54317 0
-1.11659 0.480364 0
-2.05919 1.03375 0
-3.45538 1.96812 0
-5.21742 3.48316 0
-0.755591 0.406172 0
-1.39277 0.875701 0
-2.33723 1.66638 0
-3.52963 2.9502 0
-0.470874 0.301006 0
-0.867272 0.650572 0
-1.45535 1.23729 0
-2.19814 2.1917 0
-10.3796 -0.0150015 0
-13.9745 -0.0226183 0
-16.5045 -0.0322945 0
-16.7924 -0.042252 0
-9.97534 1.6714 0
-13.4282 2.68441 0
-15.8578 3.96767 0
-16.1332 5.37893 0
-8.74087 2.93026 0
-11.7676 4.70619 0
-13.8978 6.95649 0
-14.1396 9.43098 0
-7.06054 3.52999 0
-9.5035 5.67062 0
-11.2223 8.38384 0
-11.4164 11.3675 0
-16.7474 -0.0439847 0
-13.8922 -0.0507976 0
-7.92237 -0.0584606 0
0.0608899 -0.0582073 0
-16.0898 5.38487 0
-13.3467 6.6724 0
-7.61182 7.61095 0
0.0571075 7.9248 0
-14.1011 9.44334 0
-11.698 11.6986 0
-6.67128 13.346 0
0.0513728 13.8939 0
-11.3846 11.384 0
-9.44509 14.1015 0
-5.38705 16.0896 0
0.0408065 16.7482 0
-7.04748 3.54147 0
-9.48739 5.68801 0
-11.2045 8.40838 0
-11.3991 11.3995 0
-5.19847 3.481 0
-6.99818 5.5906 0
-8.26465 8.2645 0
-8.40801 11.2043 0
-3.51646 2.94788 0
-4.73398 4.73405 0
-5.59075 6.99833 0
-5.68764 9.48745 0
-2.18962 2.1895 0
-2.94771 3.51607 0
-3.4811 5.19811 0
-3.5413 7.04695 0
-11.3672 11.4161 0
-9.4309 14.1403 0
-5.37854 16.1331 0
0.041922 16.7932 0
-8.38367 11.2222 0
-6.95663 13.8976 0
-3.96759 15.8578 0
0.0316889 16.5044 0
-5.67039 9.50439 0
-4.70618 11.7674 0
-2.68417 13.4285 0
0.0223502 13.9737 0
-3.52988 7.06118 0
-2.93051 8.74005 0
-1.67159 9.97549 0
0.0144585 10.3783 0
-0.0401203 0.0204336 0
-0.100479 0.0543412 0
-0.22805 0.136767 0
-0.466346 0.308513 0
-0.0227755 0.0134833 0
-0.0566205 0.0358289 0
-0.128483 0.0904182 0
-0.262891 0.20396 0
-0.0118571 0.00806533 0
-0.0298669 0.0212987 0
-0.0677753 0.0538567 0
-0.138503 0.121405 0
-0.00567057 0.00453154 0
-0.0137128 0.0116464 0
-0.031094 0.0293474 0
-0.0637511 0.0659344 0
-0.471643 0.302463 0
-0.868418 0.653464 0
-1.45691 1.24248 0
-2.20006 2.20047 0
-0.266138 0.199517 0
-0.489882 0.432586 0
-0.822365 0.822112 0
-1.2427 1.45724 0
-0.140378 0.118421 0
-0.257828 0.257813 0
-0.432534 0.489494 0
-0.653487 0.868403 0
-0.0647563 0.0640949 0
-0.119078 0.139973 0
-0.200338 0.265119 0
-0.303479 0.4704 0
-0.00563853 0.00437216 0
-0.0141218 0.0114097 0
-0.0320342 0.0288845 0
-0.0654908 0.0650152 0
-0.0025071 0.00212393 0
-0.00632501 0.00546776 0
-0.0143448 0.013869 0
-0.029301 0.03117 0
-0.00110909 0.000824441 0
-0.00280139 0.00209425 0
-0.00635012 0.00532624 0
-0.0129651 0.0119514 0
-0.000699737 2.3282e-06 0
-0.00181255 2.69463e-06 0
-0.0041077 1.93721e-05 0
-0.00836802 4.10987e-05 0
-0.0665034 0.0631852 0
-0.12199 0.138235 0
-0.204799 0.262071 0
-0.309728 0.465378 0
-0.0298305 0.0301581 0
-0.0545522 0.0663757 0
-0.0915828 0.125621 0
-0.138593 0.223332 0
-0.0132554 0.0115058 0
-0.0241403 0.0255 0
-0.0405565 0.0481736 0
-0.0614727 0.0857671 0
-0.00858018 1.88819e-05 0
-0.0155518 0.000115004 0
-0.0261038 0.000195105 0
-0.0395689 0.000404099 0
-2.19154 2.19826 0
-2.94986 3.52961 0
-3.48329 5.21751 0
-3.54331 7.07263 0
-1.23764 1.45537 0
-1.66647 2.337 0
-1.96824 3.45515 0
-2.00236 4.68394 0
-0.650651 0.866977 0
-0.875781 1.39207 0
-1.03406 2.05825 0
-1.05175 2.79018 0
-0.302027 0.469417 0
-0.407185 0.753143 0
-0.481277 1.11308 0
-0.489794 1.50829 0
-3.53189 7.08691 0
-2.93213 8.77135 0
-1.67263 10.0108 0
0.0141227 10.4148 0
-1.99537 4.69481 0
-1.65725 5.80885 0
-0.945302 6.63119 0
0.00900081 6.89702 0
-1.04772 2.79774 0
-0.870611 3.45995 0
-0.496764 3.95077 0
0.00483044 4.10766 0
-0.48764 1.5131 0
-0.405623 1.86966 0
-0.23129 2.13524 0
0.00309905 2.21893 0
-0.308258 0.464398 0
-0.415089 0.745517 0
-0.490218 1.10231 0
-0.498646 1.49417 0
-0.137856 0.222737 0
-0.185631 0.357483 0
-0.219206 0.528568 0
-0.222943 0.716387 0
-0.0610882 0.0854843 0
-0.0822921 0.137178 0
-0.0971876 0.20285 0
-0.0988394 0.274918 0
-0.0392948 0.00038161 0
-0.0529052 0.000621054 0
-0.062449 0.000935265 0
-0.0634816 0.00127302 0
-0.496473 1.49897 0
-0.412909 1.85257 0
-0.235613 2.11605 0
0.00268054 2.19907 0
-0.221808 0.719116 0
-0.184693 0.888045 0
-0.105429 1.0147 0
0.00135469 1.0539 0
-0.0982168 0.276142 0
-0.0819493 0.340742 0
-0.0468019 0.389511 0
0.000739164 0.404329 0
-0.0630236 0.00132608 0
-0.0526594 0.00156482 0
-0.0300922 0.00182855 0
0.000517801 0.00181952 0
-0.0585304 -0.0582257 0
7.9243 -0.0580787 0
13.8935 -0.0501491 0
16.7482 -0.0431775 0
-0.0578183 7.92483 0
7.61099 7.61081 0
13.3462 6.67219 0
16.0897 5.38458 0
-0.0504025 13.894 0
6.67198 13.346 0
11.6985 11.6986 0
14.1014 9.44327 0
-0.0428431 16.7483 0
5.38507 16.0896 0
9.44371 14.1016 0
11.3841 11.3839 0
16.7929 -0.0415274 0
16.5045 -0.0315049 0
13.9738 -0.0220261 0
10.3783 -0.014499 0
16.1328 5.37856 0
15.8579 3.96748 0
13.4285 2.68415 0
9.97542 1.67138 0
14.1398 9.43084 0
13.8978 6.95656 0
11.7674 4.70613 0
8.74031 2.93041 0
11.4157 11.3674 0
11.2224 8.38396 0
9.50415 5.67058 0
7.06126 3.53014 0
-0.0416166 16.7933 0
5.37867 16.1329 0
9.431 14.14 0
11.3674 11.4156 0
-0.0316798 16.5045 0
3.96748 15.8578 0
6.95656 13.8978 0
8.38374 11.2223 0
-0.0221768 13.9737 0
2.68424 13.4284 0
4.70623 11.7673 0
5.67048 9.50414 0
-0.0146798 10.3784 0
1.67134 9.97564 0
2.93034 8.7404 0
3.52986 7.06148 0
11.399 11.399 0
11.2045 8.40806 0
9.48735 5.68763 0
7.04723 3.54138 0
8.40793 11.2043 0
8.26468 8.26471 0
6.99821 5.59068 0
5.19839 3.48124 0
5.68764 9.48721 0
5.59075 6.99822 0
4.73395 4.73388 0
3.51633 2.94788 0
3.54121 7.04727 0
3.48113 5.1985 0
2.9478 3.51636 0
2.18969 2.1898 0
10.415 -0.014941 0
6.89724 -0.00844793 0
4.10784 -0.00512675 0
2.21909 -0.00202942 0
10.0106 1.67166 0
6.63113 0.945614 0
3.95067 0.496366 0
2.13516 0.232166 0
8.77133 2.93143 0
5.80898 1.65746 0
3.46003 0.870322 0
1.86971 0.406232 0
7.08658 3.53181 0
4.69464 1.99563 0
2.79755 1.04771 0
1.51294 0.487988 0
2.19925 -0.00255818 0
1.05401 -0.00133835 0
0.404408 -0.00070547 0
0.00192358 -0.0005579 0
2.11604 0.235646 0
1.01462 0.10539 0
0.389477 0.0468132 0
0.00178056 0.0300476 0
1.85274 0.412936 0
0.888065 0.184659 0
0.340801 0.0819601 0
0.00156036 0.052619 0
1.49893 0.496577 0
0.718965 0.221835 0
0.276079 0.0982486 0
0.00118878 0.0629938 0
7.07251 3.54305 0
4.684 2.00248 0
2.79019 1.05165 0
1.50828 0.490083 0
5.21739 3.48335 0
3.45518 1.96822 0
2.05824 1.03408 0
1.11307 0.481222 0
3.52953 2.95015 0
2.33704 1.66634 0
1.39207 0.875892 0
0.753156 0.406885 0
2.19821 2.19195 0
1.45537 1.23746 0
0.86696 0.650816 0
0.469431 0.301611 0
1.49429 0.498688 0
0.716359 0.222934 0
0.27495 0.098855 0
0.00122138 0.0634516 0
1.1024 0.490234 0
0.528527 0.2192 0
0.202872 0.097196 0
0.00087061 0.062432 0
0.7456 0.415087 0
0.357456 0.185629 0
0.137204 0.0822948 0
0.000568788 0.0529001 0
0.464444 0.308249 0
0.222706 0.13786 0
0.0854952 0.0610883 0
0.000333464 0.039298 0
-0.0150231 10.4149 0
1.67177 10.0107 0
2.93152 8.77125 0
3.53168 7.08666 0
-0.00859788 6.89708 0
0.945624 6.63119 0
1.65748 5.80892 0
1.9955 4.69479 0
-0.00518384 4.1077 0
0.49642 3.95076 0
0.87037 3.45998 0
1.04763 2.79771 0
-0.00215113 2.21896 0
0.232125 2.1352 0
0.40621 1.86963 0
0.487911 1.51302 0
3.54303 7.0724 0
3.48335 5.21739 0
2.95015 3.52946 0
2.19188 2.19825 0
2.00245 4.68396 0
1.96822 3.45521 0
1.66636 2.33702 0
1.23746 1.45543 0
1.05164 2.79018 0
1.03408 2.05828 0
0.875889 1.39207 0
0.650792 0.867003 0
0.490055 1.50823 0
0.481227 1.11305 0
0.406909 0.753114 0
0.301634 0.469422 0
-0.00262354 2.1991 0
0.235648 2.11608 0
0.412935 1.85266 0
0.496498 1.49903 0
-0.00136669 1.05392 0
0.10541 1.01467 0
0.18468 0.888026 0
0.22181 0.719063 0
-0.000724264 0.404343 0
0.0468114 0.389519 0
0.0819569 0.340773 0
0.098224 0.276158 0
-0.000548851 0.00183139 0
0.0300638 0.0017898 0
0.052639 0.00151128 0
0.0630139 0.00124233 0
0.498659 1.49426 0
0.490218 1.1024 0
0.415076 0.745587 0
0.308234 0.46446 0
0.222938 0.716351 0
0.219208 0.528535 0
0.185636 0.357453 0
0.137861 0.222718 0
0.0988439 0.274947 0
0.0971882 0.202879 0
0.0822893 0.137203 0
0.061083 0.0855036 0
0.0634717 0.00120125 0
0.0624494 0.000863893 0
0.0529135 0.000560238 0
0.0393071 0.000335758 0
2.20041 2.20041 0
1.45721 1.24248 0
0.868354 0.653615 0
0.470382 0.303035 0