# vtk DataFile Version 3.0
#This file was generated by the deal.II library on 2020/8/22 at 21:53:45
ASCII
DATASET UNSTRUCTURED_GRID

POINTS 288 double
-1 -1 0
-1 -0.666667 0
-0.666667 -1 0
-0.666667 -0.666667 0
-1 -1 0
-0.666667 -1 0
-1 -0.666667 0
-0.666667 -0.666667 0
-0.666667 -1 0
-0.666667 -0.666667 0
-0.333333 -1 0
-0.333333 -0.666667 0
-0.666667 -1 0
-0.333333 -1 0
-0.666667 -0.666667 0
-0.333333 -0.666667 0
-1 -0.666667 0
-1 -0.333333 0
-0.666667 -0.666667 0
-0.666667 -0.333333 0
-1 -0.666667 0
-0.666667 -0.666667 0
-1 -0.333333 0
-0.666667 -0.333333 0
-0.666667 -0.666667 0
-0.666667 -0.333333 0
-0.333333 -0.666667 0
-0.333333 -0.333333 0
-0.666667 -0.666667 0
-0.333333 -0.666667 0
-0.666667 -0.333333 0
-0.333333 -0.333333 0
-0.333333 -1 0
-0.333333 -0.666667 0
-5.55112e-17 -1 0
-5.55112e-17 -0.666667 0
-0.333333 -1 0
-5.55112e-17 -1 0
-0.333333 -0.666667 0
-5.55112e-17 -0.666667 0
-5.55112e-17 -1 0
-5.55112e-17 -0.666667 0
0.333333 -1 0
0.333333 -0.666667 0
-5.55112e-17 -1 0
0.333333 -1 0
-5.55112e-17 -0.666667 0
0.333333 -0.666667 0
-0.333333 -0.666667 0
-0.333333 -0.333333 0
-5.55112e-17 -0.666667 0
-5.55112e-17 -0.333333 0
-0.333333 -0.666667 0
-5.55112e-17 -0.666667 0
-0.333333 -0.333333 0
-5.55112e-17 -0.333333 0
-5.55112e-17 -0.666667 0
-5.55112e-17 -0.333333 0
0.333333 -0.666667 0
0.333333 -0.333333 0
-5.55112e-17 -0.666667 0
0.333333 -0.666667 0
-5.55112e-17 -0.333333 0
0.333333 -0.333333 0
0.333333 -1 0
0.333333 -0.666667 0
0.666667 -1 0
0.666667 -0.666667 0
0.333333 -1 0
0.666667 -1 0
0.333333 -0.666667 0
0.666667 -0.666667 0
0.666667 -1 0
0.666667 -0.666667 0
1 -1 0
1 -0.666667 0
0.666667 -1 0
1 -1 0
0.666667 -0.666667 0
1 -0.666667 0
0.333333 -0.666667 0
0.333333 -0.333333 0
0.666667 -0.666667 0
0.666667 -0.333333 0
0.333333 -0.666667 0
0.666667 -0.666667 0
0.333333 -0.333333 0
0.666667 -0.333333 0
0.666667 -0.666667 0
0.666667 -0.333333 0
1 -0.666667 0
1 -0.333333 0
0.666667 -0.666667 0
1 -0.666667 0
0.666667 -0.333333 0
1 -0.333333 0
-1 -0.333333 0
-1 -5.55112e-17 0
-0.666667 -0.333333 0
-0.666667 -5.55112e-17 0
-1 -0.333333 0
-0.666667 -0.333333 0
-1 -5.55112e-17 0
-0.666667 -5.55112e-17 0
-0.666667 -0.333333 0
-0.666667 -5.55112e-17 0
-0.333333 -0.333333 0
-0.333333 -5.55112e-17 0
-0.666667 -0.333333 0
-0.333333 -0.333333 0
-0.666667 -5.55112e-17 0
-0.333333 -5.55112e-17 0
-1 -5.55112e-17 0
-1 0.333333 0
-0.666667 -5.55112e-17 0
-0.666667 0.333333 0
-1 -5.55112e-17 0
-0.666667 -5.55112e-17 0
-1 0.333333 0
-0.666667 0.333333 0
-0.666667 -5.55112e-17 0
-0.666667 0.333333 0
-0.333333 -5.55112e-17 0
-0.333333 0.333333 0
-0.666667 -5.55112e-17 0
-0.333333 -5.55112e-17 0
-0.666667 0.333333 0
-0.333333 0.333333 0
-0.333333 -0.333333 0
-0.333333 -5.55112e-17 0
-5.55112e-17 -0.333333 0
-5.55112e-17 -5.55112e-17 0
-0.333333 -0.333333 0
-5.55112e-17 -0.333333 0
-0.333333 -5.55112e-17 0
-5.55112e-17 -5.55112e-17 0
-5.55112e-17 -0.333333 0
-5.55112e-17 -5.55112e-17 0
0.333333 -0.333333 0
0.333333 -5.55112e-17 0
-5.55112e-17 -0.333333 0
0.333333 -0.333333 0
-5.55112e-17 -5.55112e-17 0
0.333333 -5.55112e-17 0
-0.333333 -5.55112e-17 0
-0.333333 0.333333 0
-5.55112e-17 -5.55112e-17 0
-5.55112e-17 0.333333 0
-0.333333 -5.55112e-17 0
-5.55112e-17 -5.55112e-17 0
-0.333333 0.333333 0
-5.55112e-17 0.333333 0
-5.55112e-17 -5.55112e-17 0
-5.55112e-17 0.333333 0
0.333333 -5.55112e-17 0
0.333333 0.333333 0
-5.55112e-17 -5.55112e-17 0
0.333333 -5.55112e-17 0
-5.55112e-17 0.333333 0
0.333333 0.333333 0
0.333333 -0.333333 0
0.333333 -5.55112e-17 0
0.666667 -0.333333 0
0.666667 -5.55112e-17 0
0.333333 -0.333333 0
0.666667 -0.333333 0
0.333333 -5.55112e-17 0
0.666667 -5.55112e-17 0
0.666667 -0.333333 0
0.666667 -5.55112e-17 0
1 -0.333333 0
1 -5.55112e-17 0
0.666667 -0.333333 0
1 -0.333333 0
0.666667 -5.55112e-17 0
1 -5.55112e-17 0
0.333333 -5.55112e-17 0
0.333333 0.333333 0
0.666667 -5.55112e-17 0
0.666667 0.333333 0
0.333333 -5.55112e-17 0
0.666667 -5.55112e-17 0
0.333333 0.333333 0
0.666667 0.333333 0
0.666667 -5.55112e-17 0
0.666667 0.333333 0
1 -5.55112e-17 0
1 0.333333 0
0.666667 -5.55112e-17 0
1 -5.55112e-17 0
0.666667 0.333333 0
1 0.333333 0
-1 0.333333 0
-1 0.666667 0
-0.666667 0.333333 0
-0.666667 0.666667 0
-1 0.333333 0
-0.666667 0.333333 0
-1 0.666667 0
-0.666667 0.666667 0
-0.666667 0.333333 0
-0.666667 0.666667 0
-0.333333 0.333333 0
-0.333333 0.666667 0
-0.666667 0.333333 0
-0.333333 0.333333 0
-0.666667 0.666667 0
-0.333333 0.666667 0
-1 0.666667 0
-1 1 0
-0.666667 0.666667 0
-0.666667 1 0
-1 0.666667 0
-0.666667 0.666667 0
-1 1 0
-0.666667 1 0
-0.666667 0.666667 0
-0.666667 1 0
-0.333333 0.666667 0
-0.333333 1 0
-0.666667 0.666667 0
-0.333333 0.666667 0
-0.666667 1 0
-0.333333 1 0
-0.333333 0.333333 0
-0.333333 0.666667 0
-5.55112e-17 0.333333 0
-5.55112e-17 0.666667 0
-0.333333 0.333333 0
-5.55112e-17 0.333333 0
-0.333333 0.666667 0
-5.55112e-17 0.666667 0
-5.55112e-17 0.333333 0
-5.55112e-17 0.666667 0
0.333333 0.333333 0
0.333333 0.666667 0
-5.55112e-17 0.333333 0
0.333333 0.333333 0
-5.55112e-17 0.666667 0
0.333333 0.666667 0
-0.333333 0.666667 0
-0.333333 1 0
-5.55112e-17 0.666667 0
-5.55112e-17 1 0
-0.333333 0.666667 0
-5.55112e-17 0.666667 0
-0.333333 1 0
-5.55112e-17 1 0
-5.55112e-17 0.666667 0
-5.55112e-17 1 0
0.333333 0.666667 0
0.333333 1 0
-5.55112e-17 0.666667 0
0.333333 0.666667 0
-5.55112e-17 1 0
0.333333 1 0
0.333333 0.333333 0
0.333333 0.666667 0
0.666667 0.333333 0
0.666667 0.666667 0
0.333333 0.333333 0
0.666667 0.333333 0
0.333333 0.666667 0
0.666667 0.666667 0
0.666667 0.333333 0
0.666667 0.666667 0
1 0.333333 0
1 0.666667 0
0.666667 0.333333 0
1 0.333333 0
0.666667 0.666667 0
1 0.666667 0
0.333333 0.666667 0
0.333333 1 0
0.666667 0.666667 0
0.666667 1 0
0.333333 0.666667 0
0.666667 0.666667 0
0.333333 1 0
0.666667 1 0
0.666667 0.666667 0
0.666667 1 0
1 0.666667 0
1 1 0
0.666667 0.666667 0
1 0.666667 0
0.666667 1 0
1 1 0

CELLS 144 432
2	0	1
2	2	3
2	4	5
2	6	7
2	8	9
2	10	11
2	12	13
2	14	15
2	16	17
2	18	19
2	20	21
2	22	23
2	24	25
2	26	27
2	28	29
2	30	31
2	32	33
2	34	35
2	36	37
2	38	39
2	40	41
2	42	43
2	44	45
2	46	47
2	48	49
2	50	51
2	52	53
2	54	55
2	56	57
2	58	59
2	60	61
2	62	63
2	64	65
2	66	67
2	68	69
2	70	71
2	72	73
2	74	75
2	76	77
2	78	79
2	80	81
2	82	83
2	84	85
2	86	87
2	88	89
2	90	91
2	92	93
2	94	95
2	96	97
2	98	99
2	100	101
2	102	103
2	104	105
2	106	107
2	108	109
2	110	111
2	112	113
2	114	115
2	116	117
2	118	119
2	120	121
2	122	123
2	124	125
2	126	127
2	128	129
2	130	131
2	132	133
2	134	135
2	136	137
2	138	139
2	140	141
2	142	143
2	144	145
2	146	147
2	148	149
2	150	151
2	152	153
2	154	155
2	156	157
2	158	159
2	160	161
2	162	163
2	164	165
2	166	167
2	168	169
2	170	171
2	172	173
2	174	175
2	176	177
2	178	179
2	180	181
2	182	183
2	184	185
2	186	187
2	188	189
2	190	191
2	192	193
2	194	195
2	196	197
2	198	199
2	200	201
2	202	203
2	204	205
2	206	207
2	208	209
2	210	211
2	212	213
2	214	215
2	216	217
2	218	219
2	220	221
2	222	223
2	224	225
2	226	227
2	228	229
2	230	231
2	232	233
2	234	235
2	236	237
2	238	239
2	240	241
2	242	243
2	244	245
2	246	247
2	248	249
2	250	251
2	252	253
2	254	255
2	256	257
2	258	259
2	260	261
2	262	263
2	264	265
2	266	267
2	268	269
2	270	271
2	272	273
2	274	275
2	276	277
2	278	279
2	280	281
2	282	283
2	284	285
2	286	287

CELL_TYPES 144
 3 3 3 3 3 3 3 3 3 3 3 3 3 3 3 3 3 3 3 3 3 3 3 3 3 3 3 3 3 3 3 3 3 3 3 3 3 3 3 3 3 3 3 3 3 3 3 3 3 3 3 3 3 3 3 3 3 3 3 3 3 3 3 3 3 3 3 3 3 3 3 3 3 3 3 3 3 3 3 3 3 3 3 3 3 3 3 3 3 3 3 3 3 3 3 3 3 3 3 3 3 3 3 3 3 3 3 3 3 3 3 3 3 3 3 3 3 3 3 3 3 3 3 3 3 3 3 3 3 3 3 3 3 3 3 3 3 3 3 3 3 3 3 3
POINT_DATA 288
SCALARS u_hat double 1
LOOKUP_TABLE default
-4.95309 -5.92956 -4.14129 -4.75172 -4.70374 -4.22984 -5.66917 -4.71775 -4.14129 -4.75172 -3.81016 -4.04436 -4.31419 -4.03202 -3.87727 -3.13601 -6.03978 -5.74237 -3.88149 -4.03404 -5.66917 -4.71775 -5.4292 -4.83737 -3.88149 -4.03404 -3.15282 -3.25885 -3.87727 -3.13601 -3.99426 -3.18352 -3.81016 -4.04436 -3.36907 -3.62271 -3.92614 -3.40426 -4.01004 -3.49109 -3.36907 -3.62271 -2.81198 -2.65808 -3.39647 -3.04611 -3.47414 -2.6616 -3.15282 -3.25885 -3.70489 -3.55458 -4.01004 -3.49109 -4.06269 -3.31153 -3.70489 -3.55458 -1.80805 -1.45844 -3.47414 -2.6616 -3.30228 -2.35514 -2.81198 -2.65808 -1.60871 -1.34176 -3.15444 -1.90582 -1.83806 -0.476704 -1.60871 -1.34176 -0.000585382 0.00254531 -1.81282 0.0753743 -1.35063 0.148815 -1.80805 -1.45844 -0.512837 -0.249359 -1.83806 -0.476704 -1.50979 -0.252168 -0.512837 -0.249359 0.0060938 0.0060938 -1.35063 0.148815 -1.13531 0.132343 -5.63948 -4.35234 -4.86059 -4.2388 -5.4292 -4.83737 -4.37429 -4.38049 -4.86059 -4.2388 -4.10686 -3.67957 -3.99426 -3.18352 -4.47256 -3.91318 -4.35979 -3.29004 -4.25527 -3.15899 -4.37429 -4.38049 -3.20364 -3.1718 -4.25527 -3.15899 -3.68699 -2.86086 -4.47256 -3.91318 -2.28762 -2.03346 -4.10686 -3.67957 -3.46656 -2.7992 -4.06269 -3.31153 -3.82924 -2.79045 -3.46656 -2.7992 -2.33551 -1.91507 -3.30228 -2.35514 -2.81572 -2.05027 -3.68699 -2.86086 -2.82164 -2.31168 -3.82924 -2.79045 -2.88376 -2.14884 -2.82164 -2.31168 -2.04112 -1.48166 -2.81572 -2.05027 -2.28628 -1.46656 -2.33551 -1.91507 -1.11804 -0.970822 -1.50979 -0.252168 -2.09485 -1.12738 -1.11804 -0.970822 0.00254531 -0.000585382 -1.13531 0.132343 -1.08371 0.0202476 -2.04112 -1.48166 -1.08538 -0.736144 -2.09485 -1.12738 -1.46175 -0.734113 -1.08538 -0.736144 3.07371e-06 -8.18926e-07 -1.08371 0.0202476 -0.734614 -0.00676562 -3.38843 -1.98194 -2.27758 -1.05977 -3.20364 -3.1718 -1.78196 -1.84333 -2.27758 -1.05977 -1.97964 -0.926499 -2.28762 -2.03346 -0.981936 -0.902294 -1.87481 0.00341866 -1.87978 0.0820581 -1.78196 -1.84333 -0.000585382 0.00254531 -1.87978 0.0820581 -1.75789 0.1256 -0.981936 -0.902294 0.0060938 0.0060938 -1.97964 -0.926499 -2.35213 -1.42917 -2.88376 -2.14884 -1.71535 -1.22081 -2.35213 -1.42917 -1.47557 -0.813415 -2.28628 -1.46656 -1.35124 -0.793172 -1.75789 0.1256 -1.39021 0.0299708 -1.71535 -1.22081 0.00254531 -0.000585382 -1.39021 0.0299708 -0.81863 0.00813725 -1.35124 -0.793172 3.07371e-06 -8.18926e-07 -1.47557 -0.813415 -0.734851 -0.385149 -1.46175 -0.734113 -0.791666 -0.379476 -0.734851 -0.385149 1.42062e-11 -3.80567e-12 -0.734614 -0.00676562 -0.376811 -0.00588988 -0.81863 0.00813725 -0.386048 0.00646389 -0.791666 -0.379476 1.42062e-11 -3.80567e-12 -0.386048 0.00646389 2.5373e-19 -6.7986e-20 -0.376811 -0.00588988 2.5373e-19 -6.7986e-20 
