# vtk DataFile Version 3.0
#This file was generated by the deal.II library on 2020/8/22 at 21:54:02
ASCII
DATASET UNSTRUCTURED_GRID

POINTS 36864 double
-1 -1 0
-0.979167 -1 0
-1 -0.979167 0
-0.979167 -0.979167 0
-0.979167 -1 0
-0.958333 -1 0
-0.979167 -0.979167 0
-0.958333 -0.979167 0
-1 -0.979167 0
-0.979167 -0.979167 0
-1 -0.958333 0
-0.979167 -0.958333 0
-0.979167 -0.979167 0
-0.958333 -0.979167 0
-0.979167 -0.958333 0
-0.958333 -0.958333 0
-0.958333 -1 0
-0.9375 -1 0
-0.958333 -0.979167 0
-0.9375 -0.979167 0
-0.9375 -1 0
-0.916667 -1 0
-0.9375 -0.979167 0
-0.916667 -0.979167 0
-0.958333 -0.979167 0
-0.9375 -0.979167 0
-0.958333 -0.958333 0
-0.9375 -0.958333 0
-0.9375 -0.979167 0
-0.916667 -0.979167 0
-0.9375 -0.958333 0
-0.916667 -0.958333 0
-1 -0.958333 0
-0.979167 -0.958333 0
-1 -0.9375 0
-0.979167 -0.9375 0
-0.979167 -0.958333 0
-0.958333 -0.958333 0
-0.979167 -0.9375 0
-0.958333 -0.9375 0
-1 -0.9375 0
-0.979167 -0.9375 0
-1 -0.916667 0
-0.979167 -0.916667 0
-0.979167 -0.9375 0
-0.958333 -0.9375 0
-0.979167 -0.916667 0
-0.958333 -0.916667 0
-0.958333 -0.958333 0
-0.9375 -0.958333 0
-0.958333 -0.9375 0
-0.9375 -0.9375 0
-0.9375 -0.958333 0
-0.916667 -0.958333 0
-0.9375 -0.9375 0
-0.916667 -0.9375 0
-0.958333 -0.9375 0
-0.9375 -0.9375 0
-0.958333 -0.916667 0
-0.9375 -0.916667 0
-0.9375 -0.9375 0
-0.916667 -0.9375 0
-0.9375 -0.916667 0
-0.916667 -0.916667 0
-0.916667 -1 0
-0.895833 -1 0
-0.916667 -0.979167 0
-0.895833 -0.979167 0
-0.895833 -1 0
-0.875 -1 0
-0.895833 -0.979167 0
-0.875 -0.979167 0
-0.916667 -0.979167 0
-0.895833 -0.979167 0
-0.916667 -0.958333 0
-0.895833 -0.958333 0
-0.895833 -0.979167 0
-0.875 -0.979167 0
-0.895833 -0.958333 0
-0.875 -0.958333 0
-0.875 -1 0
-0.854167 -1 0
-0.875 -0.979167 0
-0.854167 -0.979167 0
-0.854167 -1 0
-0.833333 -1 0
-0.854167 -0.979167 0
-0.833333 -0.979167 0
-0.875 -0.979167 0
-0.854167 -0.979167 0
-0.875 -0.958333 0
-0.854167 -0.958333 0
-0.854167 -0.979167 0
-0.833333 -0.979167 0
-0.854167 -0.958333 0
-0.833333 -0.958333 0
-0.916667 -0.958333 0
-0.895833 -0.958333 0
-0.916667 -0.9375 0
-0.895833 -0.9375 0
-0.895833 -0.958333 0
-0.875 -0.958333 0
-0.895833 -0.9375 0
-0.875 -0.9375 0
-0.916667 -0.9375 0
-0.895833 -0.9375 0
-0.916667 -0.916667 0
-0.895833 -0.916667 0
-0.895833 -0.9375 0
-0.875 -0.9375 0
-0.895833 -0.916667 0
-0.875 -0.916667 0
-0.875 -0.958333 0
-0.854167 -0.958333 0
-0.875 -0.9375 0
-0.854167 -0.9375 0
-0.854167 -0.958333 0
-0.833333 -0.958333 0
-0.854167 -0.9375 0
-0.833333 -0.9375 0
-0.875 -0.9375 0
-0.854167 -0.9375 0
-0.875 -0.916667 0
-0.854167 -0.916667 0
-0.854167 -0.9375 0
-0.833333 -0.9375 0
-0.854167 -0.916667 0
-0.833333 -0.916667 0
-1 -0.916667 0
-0.979167 -0.916667 0
-1 -0.895833 0
-0.979167 -0.895833 0
-0.979167 -0.916667 0
-0.958333 -0.916667 0
-0.979167 -0.895833 0
-0.958333 -0.895833 0
-1 -0.895833 0
-0.979167 -0.895833 0
-1 -0.875 0
-0.979167 -0.875 0
-0.979167 -0.895833 0
-0.958333 -0.895833 0
-0.979167 -0.875 0
-0.958333 -0.875 0
-0.958333 -0.916667 0
-0.9375 -0.916667 0
-0.958333 -0.895833 0
-0.9375 -0.895833 0
-0.9375 -0.916667 0
-0.916667 -0.916667 0
-0.9375 -0.895833 0
-0.916667 -0.895833 0
-0.958333 -0.895833 0
-0.9375 -0.895833 0
-0.958333 -0.875 0
-0.9375 -0.875 0
-0.9375 -0.895833 0
-0.916667 -0.895833 0
-0.9375 -0.875 0
-0.916667 -0.875 0
-1 -0.875 0
-0.979167 -0.875 0
-1 -0.854167 0
-0.979167 -0.854167 0
-0.979167 -0.875 0
-0.958333 -0.875 0
-0.979167 -0.854167 0
-0.958333 -0.854167 0
-1 -0.854167 0
-0.979167 -0.854167 0
-1 -0.833333 0
-0.979167 -0.833333 0
-0.979167 -0.854167 0
-0.958333 -0.854167 0
-0.979167 -0.833333 0
-0.958333 -0.833333 0
-0.958333 -0.875 0
-0.9375 -0.875 0
-0.958333 -0.854167 0
-0.9375 -0.854167 0
-0.9375 -0.875 0
-0.916667 -0.875 0
-0.9375 -0.854167 0
-0.916667 -0.854167 0
-0.958333 -0.854167 0
-0.9375 -0.854167 0
-0.958333 -0.833333 0
-0.9375 -0.833333 0
-0.9375 -0.854167 0
-0.916667 -0.854167 0
-0.9375 -0.833333 0
-0.916667 -0.833333 0
-0.916667 -0.916667 0
-0.895833 -0.916667 0
-0.916667 -0.895833 0
-0.895833 -0.895833 0
-0.895833 -0.916667 0
-0.875 -0.916667 0
-0.895833 -0.895833 0
-0.875 -0.895833 0
-0.916667 -0.895833 0
-0.895833 -0.895833 0
-0.916667 -0.875 0
-0.895833 -0.875 0
-0.895833 -0.895833 0
-0.875 -0.895833 0
-0.895833 -0.875 0
-0.875 -0.875 0
-0.875 -0.916667 0
-0.854167 -0.916667 0
-0.875 -0.895833 0
-0.854167 -0.895833 0
-0.854167 -0.916667 0
-0.833333 -0.916667 0
-0.854167 -0.895833 0
-0.833333 -0.895833 0
-0.875 -0.895833 0
-0.854167 -0.895833 0
-0.875 -0.875 0
-0.854167 -0.875 0
-0.854167 -0.895833 0
-0.833333 -0.895833 0
-0.854167 -0.875 0
-0.833333 -0.875 0
-0.916667 -0.875 0
-0.895833 -0.875 0
-0.916667 -0.854167 0
-0.895833 -0.854167 0
-0.895833 -0.875 0
-0.875 -0.875 0
-0.895833 -0.854167 0
-0.875 -0.854167 0
-0.916667 -0.854167 0
-0.895833 -0.854167 0
-0.916667 -0.833333 0
-0.895833 -0.833333 0
-0.895833 -0.854167 0
-0.875 -0.854167 0
-0.895833 -0.833333 0
-0.875 -0.833333 0
-0.875 -0.875 0
-0.854167 -0.875 0
-0.875 -0.854167 0
-0.854167 -0.854167 0
-0.854167 -0.875 0
-0.833333 -0.875 0
-0.854167 -0.854167 0
-0.833333 -0.854167 0
-0.875 -0.854167 0
-0.854167 -0.854167 0
-0.875 -0.833333 0
-0.854167 -0.833333 0
-0.854167 -0.854167 0
-0.833333 -0.854167 0
-0.854167 -0.833333 0
-0.833333 -0.833333 0
-0.833333 -1 0
-0.8125 -1 0
-0.833333 -0.979167 0
-0.8125 -0.979167 0
-0.8125 -1 0
-0.791667 -1 0
-0.8125 -0.979167 0
-0.791667 -0.979167 0
-0.833333 -0.979167 0
-0.8125 -0.979167 0
-0.833333 -0.958333 0
-0.8125 -0.958333 0
-0.8125 -0.979167 0
-0.791667 -0.979167 0
-0.8125 -0.958333 0
-0.791667 -0.958333 0
-0.791667 -1 0
-0.770833 -1 0
-0.791667 -0.979167 0
-0.770833 -0.979167 0
-0.770833 -1 0
-0.75 -1 0
-0.770833 -0.979167 0
-0.75 -0.979167 0
-0.791667 -0.979167 0
-0.770833 -0.979167 0
-0.791667 -0.958333 0
-0.770833 -0.958333 0
-0.770833 -0.979167 0
-0.75 -0.979167 0
-0.770833 -0.958333 0
-0.75 -0.958333 0
-0.833333 -0.958333 0
-0.8125 -0.958333 0
-0.833333 -0.9375 0
-0.8125 -0.9375 0
-0.8125 -0.958333 0
-0.791667 -0.958333 0
-0.8125 -0.9375 0
-0.791667 -0.9375 0
-0.833333 -0.9375 0
-0.8125 -0.9375 0
-0.833333 -0.916667 0
-0.8125 -0.916667 0
-0.8125 -0.9375 0
-0.791667 -0.9375 0
-0.8125 -0.916667 0
-0.791667 -0.916667 0
-0.791667 -0.958333 0
-0.770833 -0.958333 0
-0.791667 -0.9375 0
-0.770833 -0.9375 0
-0.770833 -0.958333 0
-0.75 -0.958333 0
-0.770833 -0.9375 0
-0.75 -0.9375 0
-0.791667 -0.9375 0
-0.770833 -0.9375 0
-0.791667 -0.916667 0
-0.770833 -0.916667 0
-0.770833 -0.9375 0
-0.75 -0.9375 0
-0.770833 -0.916667 0
-0.75 -0.916667 0
-0.75 -1 0
-0.729167 -1 0
-0.75 -0.979167 0
-0.729167 -0.979167 0
-0.729167 -1 0
-0.708333 -1 0
-0.729167 -0.979167 0
-0.708333 -0.979167 0
-0.75 -0.979167 0
-0.729167 -0.979167 0
-0.75 -0.958333 0
-0.729167 -0.958333 0
-0.729167 -0.979167 0
-0.708333 -0.979167 0
-0.729167 -0.958333 0
-0.708333 -0.958333 0
-0.708333 -1 0
-0.6875 -1 0
-0.708333 -0.979167 0
-0.6875 -0.979167 0
-0.6875 -1 0
-0.666667 -1 0
-0.6875 -0.979167 0
-0.666667 -0.979167 0
-0.708333 -0.979167 0
-0.6875 -0.979167 0
-0.708333 -0.958333 0
-0.6875 -0.958333 0
-0.6875 -0.979167 0
-0.666667 -0.979167 0
-0.6875 -0.958333 0
-0.666667 -0.958333 0
-0.75 -0.958333 0
-0.729167 -0.958333 0
-0.75 -0.9375 0
-0.729167 -0.9375 0
-0.729167 -0.958333 0
-0.708333 -0.958333 0
-0.729167 -0.9375 0
-0.708333 -0.9375 0
-0.75 -0.9375 0
-0.729167 -0.9375 0
-0.75 -0.916667 0
-0.729167 -0.916667 0
-0.729167 -0.9375 0
-0.708333 -0.9375 0
-0.729167 -0.916667 0
-0.708333 -0.916667 0
-0.708333 -0.958333 0
-0.6875 -0.958333 0
-0.708333 -0.9375 0
-0.6875 -0.9375 0
-0.6875 -0.958333 0
-0.666667 -0.958333 0
-0.6875 -0.9375 0
-0.666667 -0.9375 0
-0.708333 -0.9375 0
-0.6875 -0.9375 0
-0.708333 -0.916667 0
-0.6875 -0.916667 0
-0.6875 -0.9375 0
-0.666667 -0.9375 0
-0.6875 -0.916667 0
-0.666667 -0.916667 0
-0.833333 -0.916667 0
-0.8125 -0.916667 0
-0.833333 -0.895833 0
-0.8125 -0.895833 0
-0.8125 -0.916667 0
-0.791667 -0.916667 0
-0.8125 -0.895833 0
-0.791667 -0.895833 0
-0.833333 -0.895833 0
-0.8125 -0.895833 0
-0.833333 -0.875 0
-0.8125 -0.875 0
-0.8125 -0.895833 0
-0.791667 -0.895833 0
-0.8125 -0.875 0
-0.791667 -0.875 0
-0.791667 -0.916667 0
-0.770833 -0.916667 0
-0.791667 -0.895833 0
-0.770833 -0.895833 0
-0.770833 -0.916667 0
-0.75 -0.916667 0
-0.770833 -0.895833 0
-0.75 -0.895833 0
-0.791667 -0.895833 0
-0.770833 -0.895833 0
-0.791667 -0.875 0
-0.770833 -0.875 0
-0.770833 -0.895833 0
-0.75 -0.895833 0
-0.770833 -0.875 0
-0.75 -0.875 0
-0.833333 -0.875 0
-0.8125 -0.875 0
-0.833333 -0.854167 0
-0.8125 -0.854167 0
-0.8125 -0.875 0
-0.791667 -0.875 0
-0.8125 -0.854167 0
-0.791667 -0.854167 0
-0.833333 -0.854167 0
-0.8125 -0.854167 0
-0.833333 -0.833333 0
-0.8125 -0.833333 0
-0.8125 -0.854167 0
-0.791667 -0.854167 0
-0.8125 -0.833333 0
-0.791667 -0.833333 0
-0.791667 -0.875 0
-0.770833 -0.875 0
-0.791667 -0.854167 0
-0.770833 -0.854167 0
-0.770833 -0.875 0
-0.75 -0.875 0
-0.770833 -0.854167 0
-0.75 -0.854167 0
-0.791667 -0.854167 0
-0.770833 -0.854167 0
-0.791667 -0.833333 0
-0.770833 -0.833333 0
-0.770833 -0.854167 0
-0.75 -0.854167 0
-0.770833 -0.833333 0
-0.75 -0.833333 0
-0.75 -0.916667 0
-0.729167 -0.916667 0
-0.75 -0.895833 0
-0.729167 -0.895833 0
-0.729167 -0.916667 0
-0.708333 -0.916667 0
-0.729167 -0.895833 0
-0.708333 -0.895833 0
-0.75 -0.895833 0
-0.729167 -0.895833 0
-0.75 -0.875 0
-0.729167 -0.875 0
-0.729167 -0.895833 0
-0.708333 -0.895833 0
-0.729167 -0.875 0
-0.708333 -0.875 0
-0.708333 -0.916667 0
-0.6875 -0.916667 0
-0.708333 -0.895833 0
-0.6875 -0.895833 0
-0.6875 -0.916667 0
-0.666667 -0.916667 0
-0.6875 -0.895833 0
-0.666667 -0.895833 0
-0.708333 -0.895833 0
-0.6875 -0.895833 0
-0.708333 -0.875 0
-0.6875 -0.875 0
-0.6875 -0.895833 0
-0.666667 -0.895833 0
-0.6875 -0.875 0
-0.666667 -0.875 0
-0.75 -0.875 0
-0.729167 -0.875 0
-0.75 -0.854167 0
-0.729167 -0.854167 0
-0.729167 -0.875 0
-0.708333 -0.875 0
-0.729167 -0.854167 0
-0.708333 -0.854167 0
-0.75 -0.854167 0
-0.729167 -0.854167 0
-0.75 -0.833333 0
-0.729167 -0.833333 0
-0.729167 -0.854167 0
-0.708333 -0.854167 0
-0.729167 -0.833333 0
[...]
POINT_DATA 36864
VECTORS gradient double
-0.000336703 -0.000361287 0
-0.000601136 -0.000596422 0
-0.000583135 -0.000612773 0
-0.000892438 -0.000902934 0
-0.000600877 -0.000602063 0
-0.000965941 -0.000972565 0
-0.000893738 -0.00101136 0
-0.00138455 -0.00148501 0
-0.000576035 -0.000612049 0
-0.000999289 -0.000903701 0
-0.000961986 -0.000967342 0
-0.0014749 -0.00138967 0
-0.00100121 -0.00101292 0
-0.00159343 -0.00148823 0
-0.00147866 -0.00159492 0
-0.00228633 -0.00229223 0
-0.000967075 -0.000979014 0
-0.00148328 -0.00155117 0
-0.00138792 -0.00163397 0
-0.00211256 -0.00238764 0
-0.00148688 -0.00155908 0
-0.00220903 -0.00242232 0
-0.00211967 -0.00258544 0
-0.00314959 -0.00375382 0
-0.00159824 -0.00163781 0
-0.00244142 -0.00239394 0
-0.00229397 -0.00257476 0
-0.0034855 -0.00369447 0
-0.00245082 -0.00259239 0
-0.00363469 -0.00376462 0
-0.00349972 -0.00407 0
-0.00519386 -0.00581947 0
-0.000951523 -0.000967917 0
-0.00162188 -0.00139248 0
-0.00154407 -0.00147574 0
-0.00237836 -0.00211195 0
-0.0016261 -0.00159927 0
-0.00257371 -0.00229934 0
-0.00238529 -0.00243378 0
-0.00368803 -0.00348649 0
-0.00153007 -0.00147871 0
-0.00257361 -0.00211849 0
-0.00241934 -0.00219314 0
-0.00374571 -0.00314355 0
-0.002581 -0.00244267 0
-0.00406981 -0.00350015 0
-0.0037573 -0.00361854 0
-0.0058127 -0.00519012 0
-0.00258284 -0.0025834 0
-0.0039378 -0.00370732 0
-0.0037015 -0.00392948 0
-0.00562011 -0.00562257 0
-0.00395458 -0.00408467 0
-0.0058609 -0.00584081 0
-0.00564439 -0.00621146 0
-0.0083716 -0.00886025 0
-0.00408508 -0.0039457 0
-0.00622095 -0.0056462 0
-0.00583484 -0.00584381 0
-0.00885644 -0.00837011 0
-0.00624842 -0.00623824 0
-0.00925767 -0.00889875 0
-0.00889577 -0.00923907 0
-0.013189 -0.0131897 0
-0.00221666 -0.00243201 0
-0.00320453 -0.00370332 0
-0.00316271 -0.00400713 0
-0.00458229 -0.00577136 0
-0.00321829 -0.00371483 0
-0.00453376 -0.00554171 0
-0.0046043 -0.00608309 0
-0.00650374 -0.00867749 0
-0.00365109 -0.00401869 0
-0.00527412 -0.00578891 0
-0.00521821 -0.0063006 0
-0.00755438 -0.00896067 0
-0.00530064 -0.00610156 0
-0.00746519 -0.00870502 0
-0.00759336 -0.0095529 0
-0.0107203 -0.0134891 0
-0.0045562 -0.00555482 0
-0.00625722 -0.00811556 0
-0.00653807 -0.00904433 0
-0.00900321 -0.0127594 0
-0.00629115 -0.00812974 0
-0.00842262 -0.0116298 0
-0.00905361 -0.0131692 0
-0.0121521 -0.018348 0
-0.00750551 -0.00907293 0
-0.0103076 -0.0128013 0
-0.0107792 -0.0141861 0
-0.0148383 -0.0198541 0
-0.0103657 -0.0132123 0
-0.0138801 -0.0184101 0
-0.0149227 -0.0206329 0
-0.0200254 -0.0285742 0
-0.00588913 -0.0063242 0
-0.00850561 -0.0089947 0
-0.00841233 -0.00961478 0
-0.0121731 -0.0136468 0
-0.00855016 -0.00958969 0
-0.0120422 -0.0135417 0
-0.0122373 -0.0145756 0
-0.0172712 -0.020548 0
-0.0093033 -0.00965722 0
-0.0134367 -0.0137075 0
-0.0132542 -0.014303 0
-0.0191737 -0.0203144 0
-0.013508 -0.0146411 0
-0.019027 -0.0206409 0
-0.0192759 -0.0216848 0
-0.0271986 -0.030586 0
-0.0121087 -0.014242 0
-0.0166316 -0.0199334 0
-0.0173671 -0.0216412 0
-0.0239015 -0.0302491 0
-0.0167262 -0.0207158 0
-0.022401 -0.0286904 0
-0.0240379 -0.0314705 0
-0.0322517 -0.0435405 0
-0.0191329 -0.0217397 0
-0.0262836 -0.0303877 0
-0.0273504 -0.0321989 0
-0.0376338 -0.045024 0
-0.0264333 -0.0316154 0
-0.0354073 -0.0437423 0
-0.0378487 -0.0468261 0
-0.0507741 -0.0648046 0
-0.00240161 -0.00220012 0
-0.00399578 -0.00315609 0
-0.00370499 -0.00318068 0
-0.00576473 -0.0045714 0
-0.00400791 -0.00363442 0
-0.00630153 -0.00521393 0
-0.00578329 -0.00524985 0
-0.00895376 -0.0075465 0
-0.00368352 -0.00319382 0
-0.00607246 -0.00459287 0
-0.00554833 -0.00450242 0
-0.00867261 -0.00648877 0
-0.00609167 -0.00527588 0
-0.00955506 -0.007585 0
-0.00870142 -0.00743325 0
-0.0134823 -0.0107091 0
-0.0063259 -0.00587147 0
-0.00962572 -0.00841021 0
-0.00898883 -0.00848007 0
-0.0136418 -0.0121682 0
-0.00966904 -0.009284 0
-0.0143234 -0.0132541 0
-0.0137035 -0.0134091 0
-0.0203116 -0.0191718 0
-0.00959285 -0.00852406 0
-0.014588 -0.0122319 0
-0.0135363 -0.0120085 0
-0.020542 -0.0172636 0
-0.0146546 -0.0134798 0
-0.0217069 -0.0192732 0
-0.0206362 -0.0189907 0
-0.0305813 -0.0271947 0
-0.00552352 -0.00452435 0
-0.00903469 -0.00652269 0
-0.00812711 -0.00621913 0
-0.0127564 -0.00898517 0
-0.00906426 -0.00747316 0
-0.0141894 -0.0107676 0
-0.0128 -0.0102687 0
-0.0198477 -0.0148248 0
-0.00809993 -0.00625276 0
-0.0131608 -0.00903537 0
-0.0116458 -0.00837894 0
-0.0183473 -0.0121322 0
-0.0132052 -0.0103266 0
-0.0206371 -0.014909 0
-0.0184113 -0.0138354 0
-0.0285685 -0.0200108 0
-0.0142466 -0.0120746 0
-0.0216547 -0.0173592 0
-0.0199287 -0.0165905 0
-0.0302423 -0.0238923 0
-0.0217547 -0.0190961 0
-0.0322222 -0.0273459 0
-0.0303828 -0.026239 0
-0.0450179 -0.037629 0
-0.0207217 -0.0166848 0
-0.0314843 -0.0240287 0
-0.028687 -0.0223535 0
-0.0435336 -0.0322422 0
-0.0316312 -0.0263885 0
-0.0468494 -0.0378437 0
-0.0437378 -0.0353555 0
-0.0647977 -0.0507694 0
-0.0143949 -0.0143735 0
-0.0207915 -0.020415 0
-0.0204133 -0.0207616 0
-0.0295231 -0.0295239 0
-0.0209027 -0.0217928 0
-0.0294467 -0.0307389 0
-0.0296813 -0.0314809 0
-0.0418727 -0.044447 0
-0.0218162 -0.0208719 0
-0.0315129 -0.0296812 0
-0.0307357 -0.0294074 0
-0.0444436 -0.0418723 0
-0.0316822 -0.031649 0
-0.044638 -0.044685 0
-0.0446829 -0.0445958 0
-0.063026 -0.0630286 0
-0.0296111 -0.0323606 0
-0.0406838 -0.045251 0
-0.0421069 -0.0467502 0
-0.0579297 -0.0654216 0
-0.0409156 -0.0470628 0
-0.0548144 -0.0651335 0
-0.0582601 -0.0679947 0
-0.0781462 -0.0941552 0
-0.0448876 -0.047001 0
-0.0616813 -0.0657732 0
-0.0633788 -0.0662339 0
-0.0871838 -0.0927614 0
-0.0620325 -0.0683606 0
-0.0831161 -0.0946629 0
-0.0876802 -0.0963424 0
-0.117596 -0.13349 0
-0.0323855 -0.029571 0
-0.0467837 -0.0421057 0
-0.0452467 -0.0406353 0
-0.0654162 -0.0579288 0
-0.0470359 -0.0448445 0
-0.0662781 -0.0633805 0
-0.0657695 -0.0616292 0
-0.0927565 -0.0871863 0
-0.0470882 -0.0408668 0
-0.0680282 -0.058259 0
-0.065129 -0.0547578 0
-0.0941489 -0.0781458 0
-0.068396 -0.0619799 0
-0.0963867 -0.0876825 0
-0.0946586 -0.0830548 0
-0.133484 -0.117599 0
-0.0666489 -0.0666037 0
-0.0915959 -0.0932797 0
-0.0932759 -0.0915411 0
-0.128296 -0.128301 0
-0.0921167 -0.0968806 0
-0.123441 -0.134236 0
-0.129025 -0.133166 0
-0.173031 -0.184616 0
-0.0969262 -0.0920615 0
-0.133221 -0.12903 0
-0.134232 -0.123376 0
-0.184611 -0.173037 0
-0.133978 -0.133922 0
-0.179556 -0.185663 0
-0.185658 -0.179491 0
-0.248961 -0.248966 0
-0.00847084 -0.0116442 0
-0.011053 -0.0163072 0
-0.0122221 -0.0187776 0
-0.0159859 -0.0258039 0
-0.0111178 -0.0163206 0
-0.0141335 -0.022373 0
-0.0160785 -0.0262176 0
-0.0204846 -0.0354915 0
-0.0139598 -0.0188409 0
-0.0182206 -0.0258933 0
-0.0201407 -0.0293906 0
-0.0263396 -0.0402137 0
-0.0183246 -0.0263082 0
-0.0233041 -0.0356171 0
-0.0264898 -0.041 0
-0.0337471 -0.0553437 0
-0.0142159 -0.022384 0
-0.0175975 -0.0300332 0
-0.0206009 -0.0358417 0
-0.0255524 -0.0477438 0
-0.0176969 -0.0300402 0
-0.0213168 -0.0394462 0
-0.025691 -0.0479732 0
-0.0310019 -0.0628164 0
-0.0234335 -0.0359682 0
-0.0290206 -0.0479157 0
-0.0339335 -0.0560092 0
-0.0420896 -0.0744858 0
-0.0291738 -0.0481458 0
-0.035158 -0.063046 0
-0.0423097 -0.0749216 0
-0.0510583 -0.0980401 0
-0.0225293 -0.0295107 0
-0.0294116 -0.0403799 0
-0.0324368 -0.0448208 0
-0.0424146 -0.061283 0
-0.0295778 -0.0411699 0
-0.0376227 -0.0555757 0
-0.0426544 -0.062516 0
-0.0543348 -0.0843475 0
-0.0356096 -0.0450293 0
-0.046495 -0.0615699 0
-0.0510646 -0.0666936 0
-0.0667642 -0.0912082 0
-0.0467562 -0.0628093 0
-0.0594826 -0.0847456 0
-0.0671394 -0.0930274 0
-0.0855164 -0.125531 0
-0.0378281 -0.0562443 0
-0.0468566 -0.0748016 0
-0.0546312 -0.0853909 0
-0.067757 -0.113529 0
-0.0470983 -0.0752394 0
-0.0567704 -0.0984597 0
-0.0681057 -0.114212 0
-0.0821839 -0.149438 0
-0.0598045 -0.0857945 0
-0.0740888 -0.114069 0
-0.0859788 -0.12707 0
-0.106628 -0.168955 0
-0.0744666 -0.114755 0
-0.0897709 -0.150153 0
-0.107171 -0.169963 0
-0.129316 -0.222389 0
-0.02143 -0.0394477 0
-0.0250958 -0.0506912 0
-0.0311584 -0.0628634 0
-0.0365466 -0.0808356 0
-0.0252169 -0.050686 0
-0.0286751 -0.0637357 0
-0.0367125 -0.080642 0
-0.0418048 -0.101746 0
-0.0353297 -0.0630932 0
-0.0413933 -0.0811346 0
-0.0513045 -0.0981289 0
-0.0601811 -0.126204 0
-0.0415743 -0.0809407 0
-0.047298 -0.102126 0
-0.06044 -0.125835 0
-0.06883 -0.158889 0
-0.0287952 -0.0637233 0
-0.0317444 -0.0784075 0
-0.0419678 -0.101266 0
-0.0463194 -0.125263 0
-0.0318522 -0.0783878 0
-0.033967 -0.0943748 0
-0.0464641 -0.124474 0
-0.0495936 -0.150847 0
-0.0474748 -0.101645 0
-0.0523601 -0.125735 0
-0.0690824 -0.157974 0
-0.0762532 -0.195649 0
-0.052516 -0.124944 0
-0.0560241 -0.151419 0
-0.0764749 -0.194146 0
-0.0816338 -0.235636 0
-0.0570399 -0.0985489 0
-0.0668421 -0.126748 0
-0.0825725 -0.149577 0
-0.0968557 -0.192376 0
-0.0671246 -0.126377 0
-0.0763791 -0.159578 0
-0.097263 -0.191796 0
-0.110762 -0.242206 0
-0.0901912 -0.150292 0
-0.105703 -0.193299 0
-0.12992 -0.222593 0
-0.152386 -0.286279 0
-0.106143 -0.192716 0
-0.120789 -0.243372 0
-0.153018 -0.285424 0
-0.17425 -0.360426 0
-0.0766537 -0.15866 0
-0.0845544 -0.196502 0
-0.111158 -0.240771 0
-0.122695 -0.298249 0
-0.0847949 -0.194992 0
-0.0904704 -0.236666 0
-0.123041 -0.29589 0
-0.131341 -0.35921 0
-0.121216 -0.24193 0
-0.133721 -0.299688 0
-0.174862 -0.358308 0
-0.193006 -0.443817 0
-0.134094 -0.297317 0
-0.143079 -0.360945 0
-0.193541 -0.440336 0
-0.206593 -0.534524 0
-0.0551268 -0.0670328 0
-0.0719888 -0.0916737 0
-0.0785916 -0.0968525 0
-0.102744 -0.132507 0
-0.0723912 -0.0935028 0
-0.0921076 -0.126174 0
-0.103318 -0.135105 0
-0.131586 -0.182359 0
-0.0835884 -0.0973751 0
-0.109171 -0.133223 0
-0.118264 -0.137244 0
-0.154594 -0.187849 0
-0.109778 -0.135835 0
-0.139695 -0.183346 0
-0.155453 -0.191463 0
-0.197973 -0.258502 0
-0.0926028 -0.127722 0
-0.114735 -0.169824 0
-0.132293 -0.184557 0
-0.164054 -0.245427 0
-0.115316 -0.170837 0
-0.139031 -0.223536 0
-0.164882 -0.246866 0
-0.198942 -0.323031 0
-0.140441 -0.185556 0
-0.174027 -0.246757 0
-0.199029 -0.261561 0
-0.246797 -0.347884 0
-0.174901 -0.248203 0
-0.210893 -0.324781 0
-0.248033 -0.349885 0
-0.299256 -0.457859 0
-0.12414 -0.138011 0
-0.162153 -0.188898 0
-0.174011 -0.189716 0
-0.22745 -0.259773 0
-0.163051 -0.192533 0
-0.207509 -0.259946 0
-0.228708 -0.264684 0
-0.291246 -0.357454 0
-0.180571 -0.190791 0
-0.235888 -0.261243 0
-0.250365 -0.255731 0
-0.327232 -0.350293 0
-0.23719 -0.266181 0
-0.301892 -0.359472 0
-0.329033 -0.356807 0
-0.418983 -0.481979 0
-0.208612 -0.263021 0
-0.258528 -0.349824 0
-0.29279 -0.361609 0
-0.363045 -0.48102 0
-0.259818 -0.351837 0
-0.313313 -0.46041 0
-0.36485 -0.483739 0
-0.440181 -0.633052 0
-0.303488 -0.36365 0
-0.376141 -0.48373 0
-0.421191 -0.48749 0
-0.522236 -0.648555 0
-0.378006 -0.486464 0
-0.455875 -0.636609 0
-0.524814 -0.652161 0
-0.633154 -0.853497 0
-0.139676 -0.223741 0
-0.163715 -0.287758 0
-0.199862 -0.323322 0
-0.234412 -0.415818 0
-0.164389 -0.286898 0
-0.187089 -0.362289 0
-0.235374 -0.414595 0
-0.268023 -0.523497 0
-0.211863 -0.325075 0
-0.248349 -0.418071 0
-0.300628 -0.458265 0
-0.352586 -0.589349 0
-0.249362 -0.416842 0
-0.283819 -0.526331 0
-0.354018 -0.587648 0
-0.403114 -0.741939 0
-0.187742 -0.360161 0
-0.207125 -0.446112 0
-0.268954 -0.520474 0
-0.296853 -0.6446 0
-0.207695 -0.442613 0
-0.221623 -0.537287 0
-0.297665 -0.639631 0
-0.317733 -0.776329 0
-0.284799 -0.523292 0
-0.314224 -0.648087 0
-0.404499 -0.737732 0
-0.44645 -0.913551 0
-0.315078 -0.643091 0
-0.336225 -0.780522 0
-0.447656 -0.906635 0
-0.477828 -1.10022 0
-0.314744 -0.460818 0
-0.368979 -0.592627 0
-0.442182 -0.633603 0
-0.51859 -0.81482 0
-0.370471 -0.590917 0
-0.421694 -0.746059 0
-0.520677 -0.812509 0
-0.592873 -1.02575 0
-0.457941 -0.637163 0
-0.536892 -0.819385 0
-0.636011 -0.854227 0
-0.745895 -1.09852 0
-0.539046 -0.817061 0
-0.613618 -1.03148 0
-0.748871 -1.09545 0
-0.852694 -1.38284 0
-0.423136 -0.741829 0
-0.466883 -0.918612 0
-0.59489 -1.02004 0
-0.656576 -1.26298 0
-0.468138 -0.91166 0
-0.499581 -1.1063 0
-0.65833 -1.25358 0
-0.702694 -1.52101 0
-0.615698 -1.02574 0
-0.679391 -1.27001 0
-0.855567 -1.37526 0
-0.944273 -1.70261 0
-0.681199 -1.26057 0
-0.726983 -1.52946 0
-0.94677 -1.69014 0
-1.01056 -2.05042 0
-0.0116179 -0.00842716 0
-0.0187709 -0.0122024 0
-0.0163267 -0.0110055 0
-0.0258053 -0.0159657 0
-0.0188359 -0.013915 0
-0.0293952 -0.0201262 0
-0.0258972 -0.0181718 0
-0.0402093 -0.0263253 0
-0.0163003 -0.0110706 0
-0.026213 -0.0160587 0
-0.0223944 -0.0140843 0
-0.0354951 -0.0204656 0
-0.0263057 -0.0182761 0
-0.0410043 -0.026476 0
-0.0356236 -0.0232535 0
-0.0553414 -0.0337347 0
-0.0295174 -0.0224818 0
-0.044834 -0.0324275 0
-0.0403783 -0.0293594 0
-0.0612767 -0.042406 0
-0.0450449 -0.035558 0
-0.0667155 -0.0510602 0
-0.0615666 -0.0464379 0
-0.0912018 -0.0667609 0
-0.0411769 -0.029526 0
-0.0625272 -0.0426465 0
-0.0555767 -0.0375683 0
-0.0843431 -0.0543285 0
-0.0628235 -0.0466996 0
-0.0930459 -0.067137 0
-0.0847449 -0.0594226 0
-0.125526 -0.0855157 0
-0.0223726 -0.0141676 0
-0.0358395 -0.0205828 0
-0.0300543 -0.0175496 0
-0.0477495 -0.0255364 0
-0.0359688 -0.0233836 0
-0.0560125 -0.0339221 0
-0.0479249 -0.0289712 0
-0.0744862 -0.0420806 0
-0.0300404 -0.0176504 0
-0.047974 -0.0256765 0
-0.0394647 -0.0212735 0
-0.0628239 -0.0309908 0
-0.0481498 -0.0291255 0
-0.0749232 -0.0423022 0
-0.0630574 -0.0351132 0
-0.098044 -0.0510542 0
-0.0562509 -0.0377745 0
-0.0853986 -0.0546262 0
-0.074806 -0.0468032 0
-0.113528 -0.0677544 0
-0.0858059 -0.0597456 0
-0.127083 -0.0859799 0
-0.114072 -0.0740294 0
-0.168955 -0.106631 0
-0.075245 -0.0470461 0
-0.114215 -0.0681049 0
-0.0984682 -0.0567216 0
-0.149442 -0.0821862 0
-0.114763 -0.074409 0
-0.169968 -0.107177 0
-0.150161 -0.0897163 0
-0.222394 -0.129324 0
-0.0670572 -0.0550704 0
-0.0968839 -0.0785918 0
-0.0916703 -0.0719258 0
-0.132501 -0.102745 0
-0.0974088 -0.0835275 0
-0.137286 -0.118268 0
-0.13322 -0.109102 0
-0.187844 -0.154599 0
-0.0935243 -0.0723292 0
-0.135131 -0.103321 0
-0.126173 -0.0920411 0
-0.182356 -0.131591 0
-0.135865 -0.109711 0
-0.1915 -0.155461 0
-0.183346 -0.139622 0
-0.258501 -0.197981 0
-0.138054 -0.124076 0
-0.189768 -0.174017 0
-0.188895 -0.16208 0
-0.25977 -0.227457 0
-0.190844 -0.180506 0
-0.255794 -0.250372 0
-0.26124 -0.235814 0
-0.35029 -0.327238 0
-0.192571 -0.162981 0
-0.26473 -0.228718 0
-0.259947 -0.207432 0
-0.357456 -0.291256 0
-0.266227 -0.237118 0
-0.356862 -0.329043 0
-0.359474 -0.301814 0
-0.481983 -0.418991 0
-0.127739 -0.0925379 0
-0.184576 -0.1323 0
-0.169828 -0.114669 0
-0.245429 -0.164062 0
-0.185578 -0.140371 0
-0.261587 -0.19904 0
-0.246763 -0.173955 0
-0.34789 -0.246809 0
-0.170847 -0.115252 0
-0.246875 -0.164894 0
-0.223546 -0.13897 0
-0.32304 -0.198955 0
-0.248216 -0.174832 0
-0.349899 -0.24805 0
-0.324795 -0.210826 0
-0.457876 -0.299273 0
-0.26305 -0.208538 0
-0.361643 -0.292804 0
-0.349833 -0.258451 0
-0.481031 -0.363058 0
-0.363685 -0.303414 0
-0.487532 -0.421205 0
-0.483741 -0.376063 0
-0.648572 -0.522247 0
-0.351853 -0.259745 0
-0.483759 -0.364869 0
-0.460429 -0.313242 0
-0.633076 -0.440198 0
-0.486483 -0.377934 0
-0.652186 -0.524833 0
-0.636633 -0.455803 0
-0.85353 -0.633169 0
-0.039462 -0.0213886 0
-0.0628675 -0.0311491 0
-0.0507046 -0.0250608 0
-0.0808446 -0.0365419 0
-0.0631011 -0.0352865 0
-0.0981283 -0.0513023 0
-0.0811481 -0.0413571 0
-0.126212 -0.0601832 0
-0.0507161 -0.0251842 0
-0.0806496 -0.0367099 0
-0.0637419 -0.028652 0
-0.101756 -0.0418077 0
-0.0809527 -0.0415398 0
-0.125831 -0.0604442 0
-0.102141 -0.0472741 0
-0.158901 -0.0688389 0
-0.0985529 -0.0569928 0
-0.149574 -0.0825772 0
-0.126761 -0.0668022 0
-0.192385 -0.0968638 0
-0.150294 -0.0901389 0
-0.222589 -0.129932 0
-0.193314 -0.105658 0
-0.286293 -0.1524 0
-0.126379 -0.0670868 0
-0.191786 -0.0972738 0
-0.159597 -0.0763525 0
-0.242222 -0.110777 0
-0.192712 -0.1061 0
-0.28541 -0.153036 0
-0.243394 -0.120759 0
-0.360448 -0.174269 0
-0.0637697 -0.0287745 0
-0.101277 -0.041973 0
-0.0784049 -0.0317364 0
-0.125274 -0.0463306 0
-0.101661 -0.0474529 0
-0.157969 -0.0690934 0
-0.125751 -0.0523521 0
-0.195667 -0.076269 0
-0.0784495 -0.0318466 0
-0.124489 -0.0464774 0
-0.094363 -0.0339768 0
-0.150858 -0.049613 0
-0.124965 -0.0525099 0
-0.194138 -0.0764928 0
-0.151435 -0.0560348 0
-0.235658 -0.0816561 0
-0.15866 -0.0766294 0
-0.240755 -0.111175 0
-0.196526 -0.0845451 0
-0.298273 -0.122715 0
-0.24192 -0.121188 0
-0.358285 -0.174885 0
-0.299719 -0.13371 0
-0.443849 -0.19303 0
-0.194991 -0.0847878 0
-0.295869 -0.123064 0
-0.236695 -0.0904817 0
-0.359242 -0.131366 0
-0.297303 -0.134085 0
-0.440304 -0.193569 0
-0.360983 -0.143091 0
-0.534567 -0.20662 0
-0.223742 -0.139618 0
-0.323319 -0.199879 0
-0.287777 -0.163664 0
-0.415837 -0.23443 0
-0.325076 -0.2118 0
-0.458263 -0.300651 0
-0.418096 -0.248293 0
-0.589378 -0.352607 0
-0.28689 -0.164342 0
-0.414579 -0.235397 0
-0.362318 -0.187055 0
-0.523529 -0.268046 0
-0.41683 -0.249311 0
-0.587629 -0.354045 0
-0.526369 -0.283781 0
-0.741984 -0.403139 0
-0.460819 -0.314678 0
-0.633603 -0.442207 0
-0.59266 -0.368919 0
-0.814861 -0.518611 0
-0.637163 -0.457877 0
-0.854229 -0.636036 0
-0.819426 -0.536833 0
-1.09857 -0.745913 0
-0.590902 -0.370418 0
-0.812488 -0.520707 0
-0.746107 -0.421654 0
-1.02581 -0.592898 0
-0.817041 -0.538996 0
-1.09543 -0.7489 0
-1.03154 -0.61358 0
-1.38292 -0.852715 0
-0.360143 -0.187711 0
-0.520443 -0.268982 0
-0.446152 -0.207112 0
-0.644646 -0.29688 0
-0.523267 -0.284766 0
-0.737697 -0.404531 0
-0.648138 -0.31421 0
-0.913613 -0.446477 0
-0.442588 -0.207685 0
-0.639589 -0.297697 0
-0.537337 -0.221636 0
-0.776387 -0.317761 0
-0.643055 -0.315069 0
-0.906585 -0.44769 0
-0.780586 -0.33624 0
-1.1003 -0.477856 0
-0.741796 -0.423103 0
-1.02 -0.594923 0
-0.918678 -0.466869 0
-1.26306 -0.656603 0
-1.02569 -0.615669 0
-1.37521 -0.8556 0
-1.27009 -0.67938 0
-1.70271 -0.944295 0
-0.911613 -0.468131 0
-1.25352 -0.658365 0
-1.10638 -0.499599 0
-1.52111 -0.70272 0
-1.26051 -0.681197 0
-1.69008 -0.946802 0
-1.52956 -0.727006 0
-2.05054 -1.01058 0
-0.257234 -0.257173 0
-0.336069 -0.352263 0
-0.352259 -0.335998 0
-0.460385 -0.460387 0
-0.337915 -0.358812 0
-0.430133 -0.48468 0
-0.462907 -0.468822 0
-0.589431 -0.633422 0
-0.358865 -0.337848 0
-0.468884 -0.462913 0
-0.484682 -0.430057 0
-0.633429 -0.589433 0
-0.47145 -0.471392 0
-0.600155 -0.636881 0
-0.636883 -0.600089 0
-0.810932 -0.810923 0
-0.432395 -0.490221 0
-0.535951 -0.652176 0
-0.592519 -0.640558 0
-0.734643 -0.852293 0
-0.538593 -0.655802 0
-0.649591 -0.858245 0
-0.738247 -0.856962 0
-0.890625 -1.12156 0
-0.603295 -0.644054 0
-0.747835 -0.856926 0
-0.815157 -0.819937 0
-1.01066 -1.09107 0
-0.751499 -0.861619 0
-0.906436 -1.12763 0
-1.01559 -1.09697 0
-1.22519 -1.43572 0
-0.490261 -0.432325 0
-0.640606 -0.592529 0
-0.65219 -0.535876 0
-0.852315 -0.734647 0
-0.644096 -0.603236 0
-0.819988 -0.815157 0
-0.856941 -0.74777 0
-1.0911 -1.01065 0
-0.655824 -0.538526 0
-0.856989 -0.738261 0
-0.858275 -0.649523 0
-1.12161 -0.890632 0
-0.86164 -0.751444 0
-1.097 -1.01559 0
-1.12767 -0.906378 0
-1.43577 -1.22518 0
-0.824257 -0.824216 0
-1.0218 -1.09674 0
-1.09676 -1.02175 0
-1.35977 -1.35974 0
-1.02678 -1.10267 0
-1.23854 -1.44314 0
-1.36636 -1.367 0
-1.64833 -1.78918 0
-1.10268 -1.02674 0
-1.36702 -1.36634 0
-1.44318 -1.2385 0
-1.78924 -1.6483 0
-1.37365 -1.37364 0
-1.65703 -1.79783 0
-1.79786 -1.65701 0
-2.16886 -2.16881 0
-0.652516 -0.858979 0
-0.765064 -1.10461 0
-0.894615 -1.12251 0
-1.04916 -1.44348 0
-0.76811 -1.10152 0
-0.874423 -1.39048 0
-1.05331 -1.43951 0
-1.19933 -1.81704 0
-0.91049 -1.12858 0
-1.0676 -1.45126 0
-1.23064 -1.43692 0
-1.44321 -1.84775 0
-1.07182 -1.44727 0
-1.22023 -1.82679 0
-1.44888 -1.84273 0
-1.64971 -2.32586 0
-0.877362 -1.38286 0
-0.96817 -1.71197 0
-1.20333 -1.80722 0
-1.32808 -2.23715 0
-0.970723 -1.69945 0
-1.03601 -2.06166 0
-1.33156 -2.22101 0
-1.42127 -2.69411 0
-1.2243 -1.81692 0
-1.35107 -2.2491 0
-1.65518 -2.31346 0
-1.82676 -2.86355 0
-1.3546 -2.23289 0
-1.44575 -2.70845 0
-1.8315 -2.84316 0
-1.95489 -3.44839 0
-1.24404 -1.44434 0
-1.45878 -1.85725 0
-1.65561 -1.79065 0
-1.94157 -2.30257 0
-1.46451 -1.85221 0
-1.66737 -2.33776 0
-1.94915 -2.29639 0
-2.21932 -2.89829 0
-1.66435 -1.7993 0