# vtk DataFile Version 3.0
#This file was generated by the deal.II library on 2020/8/22 at 21:54:03
ASCII
DATASET UNSTRUCTURED_GRID

POINTS 576 double
-1 -1 0
-0.888889 -1 0
-0.777778 -1 0
-0.666667 -1 0
-1 -0.888889 0
-0.888889 -0.888889 0
-0.777778 -0.888889 0
-0.666667 -0.888889 0
-1 -0.777778 0
-0.888889 -0.777778 0
-0.777778 -0.777778 0
-0.666667 -0.777778 0
-1 -0.666667 0
-0.888889 -0.666667 0
-0.777778 -0.666667 0
-0.666667 -0.666667 0
-0.666667 -1 0
-0.555556 -1 0
-0.444444 -1 0
-0.333333 -1 0
-0.666667 -0.888889 0
-0.555556 -0.888889 0
-0.444444 -0.888889 0
-0.333333 -0.888889 0
-0.666667 -0.777778 0
-0.555556 -0.777778 0
-0.444444 -0.777778 0
-0.333333 -0.777778 0
-0.666667 -0.666667 0
-0.555556 -0.666667 0
-0.444444 -0.666667 0
-0.333333 -0.666667 0
-1 -0.666667 0
-0.888889 -0.666667 0
-0.777778 -0.666667 0
-0.666667 -0.666667 0
-1 -0.555556 0
-0.888889 -0.555556 0
-0.777778 -0.555556 0
-0.666667 -0.555556 0
-1 -0.444444 0
-0.888889 -0.444444 0
-0.777778 -0.444444 0
-0.666667 -0.444444 0
-1 -0.333333 0
-0.888889 -0.333333 0
-0.777778 -0.333333 0
-0.666667 -0.333333 0
-0.666667 -0.666667 0
-0.555556 -0.666667 0
-0.444444 -0.666667 0
-0.333333 -0.666667 0
-0.666667 -0.555556 0
-0.555556 -0.555556 0
-0.444444 -0.555556 0
-0.333333 -0.555556 0
-0.666667 -0.444444 0
-0.555556 -0.444444 0
-0.444444 -0.444444 0
-0.333333 -0.444444 0
-0.666667 -0.333333 0
-0.555556 -0.333333 0
-0.444444 -0.333333 0
-0.333333 -0.333333 0
-0.333333 -1 0
-0.222222 -1 0
-0.111111 -1 0
-5.55112e-17 -1 0
-0.333333 -0.888889 0
-0.222222 -0.888889 0
-0.111111 -0.888889 0
-5.55112e-17 -0.888889 0
-0.333333 -0.777778 0
-0.222222 -0.777778 0
-0.111111 -0.777778 0
-5.55112e-17 -0.777778 0
-0.333333 -0.666667 0
-0.222222 -0.666667 0
-0.111111 -0.666667 0
-5.55112e-17 -0.666667 0
-5.55112e-17 -1 0
0.111111 -1 0
0.222222 -1 0
0.333333 -1 0
-5.55112e-17 -0.888889 0
0.111111 -0.888889 0
0.222222 -0.888889 0
0.333333 -0.888889 0
-5.55112e-17 -0.777778 0
0.111111 -0.777778 0
0.222222 -0.777778 0
0.333333 -0.777778 0
-5.55112e-17 -0.666667 0
0.111111 -0.666667 0
0.222222 -0.666667 0
0.333333 -0.666667 0
-0.333333 -0.666667 0
-0.222222 -0.666667 0
-0.111111 -0.666667 0
-5.55112e-17 -0.666667 0
-0.333333 -0.555556 0
-0.222222 -0.555556 0
-0.111111 -0.555556 0
-5.55112e-17 -0.555556 0
-0.333333 -0.444444 0
-0.222222 -0.444444 0
-0.111111 -0.444444 0
-5.55112e-17 -0.444444 0
-0.333333 -0.333333 0
-0.222222 -0.333333 0
-0.111111 -0.333333 0
-5.55112e-17 -0.333333 0
-5.55112e-17 -0.666667 0
0.111111 -0.666667 0
0.222222 -0.666667 0
0.333333 -0.666667 0
-5.55112e-17 -0.555556 0
0.111111 -0.555556 0
0.222222 -0.555556 0
0.333333 -0.555556 0
-5.55112e-17 -0.444444 0
0.111111 -0.444444 0
0.222222 -0.444444 0
0.333333 -0.444444 0
-5.55112e-17 -0.333333 0
0.111111 -0.333333 0
0.222222 -0.333333 0
0.333333 -0.333333 0
0.333333 -1 0
0.444444 -1 0
0.555556 -1 0
0.666667 -1 0
0.333333 -0.888889 0
0.444444 -0.888889 0
0.555556 -0.888889 0
0.666667 -0.888889 0
0.333333 -0.777778 0
0.444444 -0.777778 0
0.555556 -0.777778 0
0.666667 -0.777778 0
0.333333 -0.666667 0
0.444444 -0.666667 0
0.555556 -0.666667 0
0.666667 -0.666667 0
0.666667 -1 0
0.777778 -1 0
0.888889 -1 0
1 -1 0
0.666667 -0.888889 0
0.777778 -0.888889 0
0.888889 -0.888889 0
1 -0.888889 0
0.666667 -0.777778 0
0.777778 -0.777778 0
0.888889 -0.777778 0
1 -0.777778 0
0.666667 -0.666667 0
0.777778 -0.666667 0
0.888889 -0.666667 0
1 -0.666667 0
0.333333 -0.666667 0
0.444444 -0.666667 0
0.555556 -0.666667 0
0.666667 -0.666667 0
0.333333 -0.555556 0
0.444444 -0.555556 0
0.555556 -0.555556 0
0.666667 -0.555556 0
0.333333 -0.444444 0
0.444444 -0.444444 0
0.555556 -0.444444 0
0.666667 -0.444444 0
0.333333 -0.333333 0
0.444444 -0.333333 0
0.555556 -0.333333 0
0.666667 -0.333333 0
0.666667 -0.666667 0
0.777778 -0.666667 0
0.888889 -0.666667 0
1 -0.666667 0
0.666667 -0.555556 0
0.777778 -0.555556 0
0.888889 -0.555556 0
1 -0.555556 0
0.666667 -0.444444 0
0.777778 -0.444444 0
0.888889 -0.444444 0
1 -0.444444 0
0.666667 -0.333333 0
0.777778 -0.333333 0
0.888889 -0.333333 0
1 -0.333333 0
-1 -0.333333 0
-0.888889 -0.333333 0
-0.777778 -0.333333 0
-0.666667 -0.333333 0
-1 -0.222222 0
-0.888889 -0.222222 0
-0.777778 -0.222222 0
-0.666667 -0.222222 0
-1 -0.111111 0
-0.888889 -0.111111 0
-0.777778 -0.111111 0
-0.666667 -0.111111 0
-1 -5.55112e-17 0
-0.888889 -5.55112e-17 0
-0.777778 -5.55112e-17 0
-0.666667 -5.55112e-17 0
-0.666667 -0.333333 0
-0.555556 -0.333333 0
-0.444444 -0.333333 0
-0.333333 -0.333333 0
-0.666667 -0.222222 0
-0.555556 -0.222222 0
-0.444444 -0.222222 0
-0.333333 -0.222222 0
-0.666667 -0.111111 0
-0.555556 -0.111111 0
-0.444444 -0.111111 0
-0.333333 -0.111111 0
-0.666667 -5.55112e-17 0
-0.555556 -5.55112e-17 0
-0.444444 -5.55112e-17 0
-0.333333 -5.55112e-17 0
-1 -5.55112e-17 0
-0.888889 -5.55112e-17 0
-0.777778 -5.55112e-17 0
-0.666667 -5.55112e-17 0
-1 0.111111 0
-0.888889 0.111111 0
-0.777778 0.111111 0
-0.666667 0.111111 0
-1 0.222222 0
-0.888889 0.222222 0
-0.777778 0.222222 0
-0.666667 0.222222 0
-1 0.333333 0
-0.888889 0.333333 0
-0.777778 0.333333 0
-0.666667 0.333333 0
-0.666667 -5.55112e-17 0
-0.555556 -5.55112e-17 0
-0.444444 -5.55112e-17 0
-0.333333 -5.55112e-17 0
-0.666667 0.111111 0
-0.555556 0.111111 0
-0.444444 0.111111 0
-0.333333 0.111111 0
-0.666667 0.222222 0
-0.555556 0.222222 0
-0.444444 0.222222 0
-0.333333 0.222222 0
-0.666667 0.333333 0
-0.555556 0.333333 0
-0.444444 0.333333 0
-0.333333 0.333333 0
-0.333333 -0.333333 0
-0.222222 -0.333333 0
-0.111111 -0.333333 0
-5.55112e-17 -0.333333 0
-0.333333 -0.222222 0
-0.222222 -0.222222 0
-0.111111 -0.222222 0
-5.55112e-17 -0.222222 0
-0.333333 -0.111111 0
-0.222222 -0.111111 0
-0.111111 -0.111111 0
-5.55112e-17 -0.111111 0
-0.333333 -5.55112e-17 0
-0.222222 -5.55112e-17 0
-0.111111 -5.55112e-17 0
-5.55112e-17 -5.55112e-17 0
-5.55112e-17 -0.333333 0
0.111111 -0.333333 0
0.222222 -0.333333 0
0.333333 -0.333333 0
-5.55112e-17 -0.222222 0
0.111111 -0.222222 0
0.222222 -0.222222 0
0.333333 -0.222222 0
-5.55112e-17 -0.111111 0
0.111111 -0.111111 0
0.222222 -0.111111 0
0.333333 -0.111111 0
-5.55112e-17 -5.55112e-17 0
0.111111 -5.55112e-17 0
0.222222 -5.55112e-17 0
0.333333 -5.55112e-17 0
-0.333333 -5.55112e-17 0
-0.222222 -5.55112e-17 0
-0.111111 -5.55112e-17 0
-5.55112e-17 -5.55112e-17 0
-0.333333 0.111111 0
-0.222222 0.111111 0
-0.111111 0.111111 0
-5.55112e-17 0.111111 0
-0.333333 0.222222 0
-0.222222 0.222222 0
-0.111111 0.222222 0
-5.55112e-17 0.222222 0
-0.333333 0.333333 0
-0.222222 0.333333 0
-0.111111 0.333333 0
-5.55112e-17 0.333333 0
-5.55112e-17 -5.55112e-17 0
0.111111 -5.55112e-17 0
0.222222 -5.55112e-17 0
0.333333 -5.55112e-17 0
-5.55112e-17 0.111111 0
0.111111 0.111111 0
0.222222 0.111111 0
0.333333 0.111111 0
-5.55112e-17 0.222222 0
0.111111 0.222222 0
0.222222 0.222222 0
0.333333 0.222222 0
-5.55112e-17 0.333333 0
0.111111 0.333333 0
0.222222 0.333333 0
0.333333 0.333333 0
0.333333 -0.333333 0
0.444444 -0.333333 0
0.555556 -0.333333 0
0.666667 -0.333333 0
0.333333 -0.222222 0
0.444444 -0.222222 0
0.555556 -0.222222 0
0.666667 -0.222222 0
0.333333 -0.111111 0
0.444444 -0.111111 0
0.555556 -0.111111 0
0.666667 -0.111111 0
0.333333 -5.55112e-17 0
0.444444 -5.55112e-17 0
0.555556 -5.55112e-17 0
0.666667 -5.55112e-17 0
0.666667 -0.333333 0
0.777778 -0.333333 0
0.888889 -0.333333 0
1 -0.333333 0
0.666667 -0.222222 0
0.777778 -0.222222 0
0.888889 -0.222222 0
1 -0.222222 0
0.666667 -0.111111 0
0.777778 -0.111111 0
0.888889 -0.111111 0
1 -0.111111 0
0.666667 -5.55112e-17 0
0.777778 -5.55112e-17 0
0.888889 -5.55112e-17 0
1 -5.55112e-17 0
0.333333 -5.55112e-17 0
0.444444 -5.55112e-17 0
0.555556 -5.55112e-17 0
0.666667 -5.55112e-17 0
0.333333 0.111111 0
0.444444 0.111111 0
0.555556 0.111111 0
0.666667 0.111111 0
0.333333 0.222222 0
0.444444 0.222222 0
0.555556 0.222222 0
0.666667 0.222222 0
0.333333 0.333333 0
0.444444 0.333333 0
0.555556 0.333333 0
0.666667 0.333333 0
0.666667 -5.55112e-17 0
0.777778 -5.55112e-17 0
0.888889 -5.55112e-17 0
1 -5.55112e-17 0
0.666667 0.111111 0
0.777778 0.111111 0
0.888889 0.111111 0
1 0.111111 0
0.666667 0.222222 0
0.777778 0.222222 0
0.888889 0.222222 0
1 0.222222 0
0.666667 0.333333 0
0.777778 0.333333 0
0.888889 0.333333 0
1 0.333333 0
-1 0.333333 0
-0.888889 0.333333 0
-0.777778 0.333333 0
-0.666667 0.333333 0
-1 0.444444 0
-0.888889 0.444444 0
-0.777778 0.444444 0
-0.666667 0.444444 0
-1 0.555556 0
-0.888889 0.555556 0
-0.777778 0.555556 0
-0.666667 0.555556 0
-1 0.666667 0
-0.888889 0.666667 0
-0.777778 0.666667 0
-0.666667 0.666667 0
-0.666667 0.333333 0
-0.555556 0.333333 0
-0.444444 0.333333 0
-0.333333 0.333333 0
-0.666667 0.444444 0
-0.555556 0.444444 0
-0.444444 0.444444 0
-0.333333 0.444444 0
-0.666667 0.555556 0
-0.555556 0.555556 0
-0.444444 0.555556 0
-0.333333 0.555556 0
-0.666667 0.666667 0
-0.555556 0.666667 0
-0.444444 0.666667 0
-0.333333 0.666667 0
-1 0.666667 0
-0.888889 0.666667 0
-0.777778 0.666667 0
-0.666667 0.666667 0
-1 0.777778 0
-0.888889 0.777778 0
-0.777778 0.777778 0
-0.666667 0.777778 0
-1 0.888889 0
-0.888889 0.888889 0
-0.777778 0.888889 0
-0.666667 0.888889 0
-1 1 0
-0.888889 1 0
-0.777778 1 0
-0.666667 1 0
-0.666667 0.666667 0
-0.555556 0.666667 0
-0.444444 0.666667 0
-0.333333 0.666667 0
-0.666667 0.777778 0
-0.555556 0.777778 0
-0.444444 0.777778 0
-0.333333 0.777778 0
-0.666667 0.888889 0
-0.555556 0.888889 0
-0.444444 0.888889 0
-0.333333 0.888889 0
-0.666667 1 0
-0.555556 1 0
-0.444444 1 0
-0.333333 1 0
-0.333333 0.333333 0
-0.222222 0.333333 0
-0.111111 0.333333 0
-5.55112e-17 0.333333 0
-0.333333 0.444444 0
-0.222222 0.444444 0
-0.111111 0.444444 0
-5.55112e-17 0.444444 0
-0.333333 0.555556 0
-0.222222 0.555556 0
-0.111111 0.555556 0
-5.55112e-17 0.555556 0
-0.333333 0.666667 0
-0.222222 0.666667 0
-0.111111 0.666667 0
-5.55112e-17 0.666667 0
-5.55112e-17 0.333333 0
0.111111 0.333333 0
0.222222 0.333333 0
0.333333 0.333333 0
-5.55112e-17 0.444444 0
0.111111 0.444444 0
0.222222 0.444444 0
0.333333 0.444444 0
-5.55112e-17 0.555556 0
0.111111 0.555556 0
0.222222 0.555556 0
0.333333 0.555556 0
-5.55112e-17 0.666667 0
0.111111 0.666667 0
0.222222 0.666667 0
0.333333 0.666667 0
-0.333333 0.666667 0
-0.222222 0.666667 0
-0.111111 0.666667 0
-5.55112e-17 0.666667 0
-0.333333 0.777778 0
-0.222222 0.777778 0
-0.111111 0.777778 0
-5.55112e-17 0.777778 0
-0.333333 0.888889 0
-0.222222 0.888889 0
-0.111111 0.888889 0
-5.55112e-17 0.888889 0
-0.333333 1 0
-0.222222 1 0
-0.111111 1 0
-5.55112e-17 1 0
-5.55112e-17 0.666667 0
0.111111 0.666667 0
0.222222 0.666667 0
0.333333 0.666667 0
-5.55112e-17 0.777778 0
0.111111 0.777778 0
0.222222 0.777778 0
0.333333 0.777778 0
-5.55112e-17 0.888889 0
0.111111 0.888889 0
0.222222 0.888889 0
0.333333 0.888889 0
-5.55112e-17 1 0
0.111111 1 0
0.222222 1 0
0.333333 1 0
0.333333 0.333333 0
0.444444 0.333333 0
0.555556 0.333333 0
0.666667 0.333333 0
0.333333 0.444444 0
0.444444 0.444444 0
0.555556 0.444444 0
0.666667 0.444444 0
0.333333 0.555556 0
0.444444 0.555556 0
0.555556 0.555556 0
0.666667 0.555556 0
0.333333 0.666667 0
0.444444 0.666667 0
0.555556 0.666667 0
0.666667 0.666667 0
0.666667 0.333333 0
0.777778 0.333333 0
0.888889 0.333333 0
1 0.333333 0
0.666667 0.444444 0
0.777778 0.444444 0
0.888889 0.444444 0
1 0.444444 0
0.666667 0.555556 0
0.777778 0.555556 0
0.888889 0.555556 0
1 0.555556 0
0.666667 0.666667 0
0.777778 0.666667 0
0.888889 0.666667 0
1 0.666667 0
0.333333 0.666667 0
0.444444 0.666667 0
0.555556 0.666667 0
0.666667 0.666667 0
0.333333 0.777778 0
0.444444 0.777778 0
0.555556 0.777778 0
0.666667 0.777778 0
0.333333 0.888889 0
0.444444 0.888889 0
0.555556 0.888889 0
0.666667 0.888889 0
0.333333 1 0
0.444444 1 0
0.555556 1 0
0.666667 1 0
0.666667 0.666667 0
0.777778 0.666667 0
0.888889 0.666667 0
1 0.666667 0
0.666667 0.777778 0
0.777778 0.777778 0
0.888889 0.777778 0
1 0.777778 0
0.666667 0.888889 0
0.777778 0.888889 0
0.888889 0.888889 0
1 0.888889 0
0.666667 1 0
0.777778 1 0
0.888889 1 0
1 1 0

CELLS 324 1620
4	0	1	5	4
4	1	2	6	5
4	2	3	7	6
4	4	5	9	8
4	5	6	10	9
4	6	7	11	10
4	8	9	13	12
4	9	10	14	13
4	10	11	15	14
4	16	17	21	20
4	17	18	22	21
4	18	19	23	22
4	20	21	25	24
4	21	22	26	25
4	22	23	27	26
4	24	25	29	28
4	25	26	30	29
4	26	27	31	30
4	32	33	37	36
4	33	34	38	37
4	34	35	39	38
4	36	37	41	40
4	37	38	42	41
4	38	39	43	42
4	40	41	45	44
4	41	42	46	45
4	42	43	47	46
4	48	49	53	52
4	49	50	54	53
4	50	51	55	54
4	52	53	57	56
4	53	54	58	57
4	54	55	59	58
4	56	57	61	60
4	57	58	62	61
4	58	59	63	62
4	64	65	69	68
4	65	66	70	69
4	66	67	71	70
4	68	69	73	72
4	69	70	74	73
4	70	71	75	74
4	72	73	77	76
4	73	74	78	77
4	74	75	79	78
4	80	81	85	84
4	81	82	86	85
4	82	83	87	86
4	84	85	89	88
4	85	86	90	89
4	86	87	91	90
4	88	89	93	92
4	89	90	94	93
4	90	91	95	94
4	96	97	101	100
4	97	98	102	101
4	98	99	103	102
4	100	101	105	104
4	101	102	106	105
4	102	103	107	106
4	104	105	109	108
4	105	106	110	109
4	106	107	111	110
4	112	113	117	116
4	113	114	118	117
4	114	115	119	118
4	116	117	121	120
4	117	118	122	121
4	118	119	123	122
4	120	121	125	124
4	121	122	126	125
4	122	123	127	126
4	128	129	133	132
4	129	130	134	133
4	130	131	135	134
4	132	133	137	136
4	133	134	138	137
4	134	135	139	138
4	136	137	141	140
4	137	138	142	141
4	138	139	143	142
4	144	145	149	148
4	145	146	150	149
4	146	147	151	150
4	148	149	153	152
4	149	150	154	153
4	150	151	155	154
4	152	153	157	156
4	153	154	158	157
4	154	155	159	158
4	160	161	165	164
4	161	162	166	165
4	162	163	167	166
4	164	165	169	168
4	165	166	170	169
4	166	167	171	170
4	168	169	173	172
4	169	170	174	173
4	170	171	175	174
4	176	177	181	180
4	177	178	182	181
4	178	179	183	182
4	180	181	185	184
4	181	182	186	185
4	182	183	187	186
4	184	185	189	188
4	185	186	190	189
4	186	187	191	190
4	192	193	197	196
4	193	194	198	197
4	194	195	199	198
4	196	197	201	200
4	197	198	202	201
4	198	199	203	202
4	200	201	205	204
4	201	202	206	205
4	202	203	207	206
4	208	209	213	212
4	209	210	214	213
4	210	211	215	214
4	212	213	217	216
4	213	214	218	217
4	214	215	219	218
4	216	217	221	220
4	217	218	222	221
4	218	219	223	222
4	224	225	229	228
4	225	226	230	229
4	226	227	231	230
4	228	229	233	232
4	229	230	234	233
4	230	231	235	234
4	232	233	237	236
4	233	234	238	237
4	234	235	239	238
4	240	241	245	244
4	241	242	246	245
4	242	243	247	246
4	244	245	249	248
4	245	246	250	249
4	246	247	251	250
4	248	249	253	252
4	249	250	254	253
4	250	251	255	254
4	256	257	261	260
4	257	258	262	261
4	258	259	263	262
4	260	261	265	264
4	261	262	266	265
4	262	263	267	266
4	264	265	269	268
4	265	266	270	269
4	266	267	271	270
4	272	273	277	276
4	273	274	278	277
4	274	275	279	278
4	276	277	281	280
4	277	278	282	281
4	278	279	283	282
4	280	281	285	284
4	281	282	286	285
4	282	283	287	286
4	288	289	293	292
4	289	290	294	293
4	290	291	295	294
4	292	293	297	296
4	293	294	298	297
4	294	295	299	298
4	296	297	301	300
4	297	298	302	301
4	298	299	303	302
4	304	305	309	308
4	305	306	310	309
4	306	307	311	310
4	308	309	313	312
4	309	310	314	313
4	310	311	315	314
4	312	313	317	316
4	313	314	318	317
4	314	315	319	318
4	320	321	325	324
4	321	322	326	325
4	322	323	327	326
4	324	325	329	328
4	325	326	330	329
4	326	327	331	330
4	328	329	333	332
4	329	330	334	333
4	330	331	335	334
4	336	337	341	340
4	337	338	342	341
4	338	339	343	342
4	340	341	345	344
4	341	342	346	345
4	342	343	347	346
4	344	345	349	348
4	345	346	350	349
4	346	347	351	350
4	352	353	357	356
4	353	354	358	357
4	354	355	359	358
4	356	357	361	360
4	357	358	362	361
4	358	359	363	362
4	360	361	365	364
4	361	362	366	365
4	362	363	367	366
4	368	369	373	372
4	369	370	374	373
4	370	371	375	374
4	372	373	377	376
4	373	374	378	377
4	374	375	379	378
4	376	377	381	380
4	377	378	382	381
4	378	379	383	382
4	384	385	389	388
4	385	386	390	389
4	386	387	391	390
4	388	389	393	392
4	389	390	394	393
4	390	391	395	394
4	392	393	397	396
4	393	394	398	397
4	394	395	399	398
4	400	401	405	404
4	401	402	406	405
4	402	403	407	406
4	404	405	409	408
4	405	406	410	409
4	406	407	411	410
4	408	409	413	412
4	409	410	414	413
4	410	411	415	414
4	416	417	421	420
4	417	418	422	421
4	418	419	423	422
4	420	421	425	424
4	421	422	426	425
4	422	423	427	426
4	424	425	429	428
4	425	426	430	429
4	426	427	431	430
4	432	433	437	436
4	433	434	438	437
4	434	435	439	438
4	436	437	441	440
4	437	438	442	441
4	438	439	443	442
4	440	441	445	444
4	441	442	446	445
4	442	443	447	446
4	448	449	453	452
4	449	450	454	453
4	450	451	455	454
4	452	453	457	456
4	453	454	458	457
4	454	455	459	458
4	456	457	461	460
4	457	458	462	461
4	458	459	463	462
4	464	465	469	468
4	465	466	470	469
4	466	467	471	470
4	468	469	473	472
4	469	470	474	473
4	470	471	475	474
4	472	473	477	476
4	473	474	478	477
4	474	475	479	478
4	480	481	485	484
4	481	482	486	485
4	482	483	487	486
4	484	485	489	488
4	485	486	490	489
4	486	487	491	490
4	488	489	493	492
4	489	490	494	493
4	490	491	495	494
4	496	497	501	500
4	497	498	502	501
4	498	499	503	502
4	500	501	505	504
4	501	502	506	505
4	502	503	507	506
4	504	505	509	508
4	505	506	510	509
4	506	507	511	510
4	512	513	517	516
4	513	514	518	517
4	514	515	519	518
4	516	517	521	520
4	517	518	522	521
4	518	519	523	522
4	520	521	525	524
4	521	522	526	525
4	522	523	527	526
4	528	529	533	532
4	529	530	534	533
4	530	531	535	534
4	532	533	537	536
4	533	534	538	537
4	534	535	539	538
4	536	537	541	540
4	537	538	542	541
4	538	539	543	542
4	544	545	549	548
4	545	546	550	549
4	546	547	551	550
4	548	549	553	552
4	549	550	554	553
4	550	551	555	554
4	552	553	557	556
4	553	554	558	557
4	554	555	559	558
4	560	561	565	564
4	561	562	566	565
4	562	563	567	566
4	564	565	569	568
4	565	566	570	569
4	566	567	571	570
4	568	569	573	572
4	569	570	574	573
4	570	571	575	574

CELL_TYPES 324
 9 9 9 9 9 9 9 9 9 9 9 9 9 9 9 9 9 9 9 9 9 9 9 9 9 9 9 9 9 9 9 9 9 9 9 9 9 9 9 9 9 9 9 9 9 9 9 9 9 9 9 9 9 9 9 9 9 9 9 9 9 9 9 9 9 9 9 9 9 9 9 9 9 9 9 9 9 9 9 9 9 9 9 9 9 9 9 9 9 9 9 9 9 9 9 9 9 9 9 9 9 9 9 9 9 9 9 9 9 9 9 9 9 9 9 9 9 9 9 9 9 9 9 9 9 9 9 9 9 9 9 9 9 9 9 9 9 9 9 9 9 9 9 9 9 9 9 9 9 9 9 9 9 9 9 9 9 9 9 9 9 9 9 9 9 9 9 9 9 9 9 9 9 9 9 9 9 9 9 9 9 9 9 9 9 9 9 9 9 9 9 9 9 9 9 9 9 9 9 9 9 9 9 9 9 9 9 9 9 9 9 9 9 9 9 9 9 9 9 9 9 9 9 9 9 9 9 9 9 9 9 9 9 9 9 9 9 9 9 9 9 9 9 9 9 9 9 9 9 9 9 9 9 9 9 9 9 9 9 9 9 9 9 9 9 9 9 9 9 9 9 9 9 9 9 9 9 9 9 9 9 9 9 9 9 9 9 9 9 9 9 9 9 9 9 9 9 9 9 9 9 9 9 9 9 9 9 9 9 9 9 9 9 9 9 9 9 9 9 9 9 9 9 9
POINT_DATA 576
VECTORS gradient double
-0.0277588 0.016404 0
0.0662725 -0.0269109 0
0.205116 -0.133483 0
0.319413 -0.41387 0
-0.0599558 0.0864396 0
-0.075496 -0.0447253 0
-0.270403 -0.194283 0
-0.547039 -0.908475 0
-0.162034 0.21326 0
-0.219351 -0.24581 0
-1.10067 -1.08214 0
-2.42025 -4.32645 0
-0.427724 0.321224 0
-0.940431 -0.540183 0
-4.35785 -2.41922 0
-9.16591 -9.16413 0
0.329073 -0.378919 0
0.165416 -0.670117 0
-0.168057 -0.66619 0
-0.335745 -0.372894 0
-0.521361 -0.783561 0
-0.27815 -1.54218 0
0.261349 -1.54958 0
0.51496 -0.782113 0
-2.36974 -3.82097 0
-1.29885 -7.49137 0
1.2797 -7.50647 0
2.36964 -3.80932 0
-9.09273 -8.16029 0
-4.96447 -15.9224 0
4.92594 -15.9283 0
9.10775 -8.11985 0
-0.396896 0.332005 0
-0.802049 -0.514919 0
-3.82416 -2.37373 0
-8.13389 -9.10742 0
-0.685685 0.184711 0
-1.5707 -0.274202 0
-7.52193 -1.27583 0
-15.9404 -4.95302 0
-0.686113 -0.151066 0
-1.56332 0.258116 0
-7.5096 1.2982 0
-15.9274 4.92602 0
-0.394642 -0.340986 0
-0.804259 0.504544 0
-3.8412 2.3575 0
-8.16334 9.07497 0
-8.05965 -8.10203 0
-4.40897 -15.8921 0
4.37822 -15.8935 0
8.07116 -8.05632 0
-15.8802 -4.39214 0
-8.71522 -8.68546 0
8.68557 -8.69471 0
15.9014 -4.39719 0
-15.8583 4.41347 0
-8.71504 8.69718 0
8.6779 8.71165 0
15.8738 4.39898 0
-8.07531 8.06972 0
-4.41624 15.8533 0
4.40313 15.8602 0
8.07325 8.03684 0
-0.325872 -0.406802 0
-0.219962 -0.138269 0
-0.0836347 -0.0403233 0
0.00239588 -0.00776414 0
0.538243 -0.919178 0
0.253926 -0.201742 0
0.0547971 -0.0586799 0
0.0299503 0.0754795 0
2.41339 -4.34427 0
1.0794 -1.08693 0
0.195925 -0.259555 0
0.113907 0.202481 0
9.1639 -9.15814 0
4.33826 -2.40741 0
0.914612 -0.545943 0
0.321235 0.301648 0
-0.0083327 -0.00858335 0
0.0801607 -0.046857 0
0.212434 -0.152961 0
0.306067 -0.423885 0
-0.0473238 0.0753691 0
-0.0716685 -0.0606969 0
-0.272983 -0.206387 0
-0.553353 -0.927735 0
-0.12866 0.201575 0
-0.208894 -0.260238 0
-1.09734 -1.09028 0
-2.43467 -4.34864 0
-0.343884 0.298941 0
-0.940054 -0.54953 0
-4.36565 -2.41896 0
-9.17814 -9.16628 0
8.12974 -9.09455 0
3.80217 -2.35936 0
0.775768 -0.519844 0
0.296637 0.313639 0
15.9382 -4.96529 0
7.49744 -1.28399 0
1.53919 -0.277792 0
0.509909 0.167559 0
15.9209 4.94343 0
7.49128 1.29578 0
1.53573 0.265837 0
0.506757 -0.146296 0
8.148 9.07466 0
3.81566 2.35126 0
0.776929 0.514247 0
0.295391 -0.31721 0
-0.317134 0.310898 0
-0.799352 -0.518389 0
-3.83815 -2.35761 0
-8.17387 -9.07664 0
-0.523955 0.164897 0
-1.55857 -0.278613 0
-7.51287 -1.29032 0
-15.9439 -4.96959 0
-0.523911 -0.147026 0
-1.56236 0.263277 0
-7.52129 1.28915 0
-15.9532 4.93348 0
-0.311969 -0.315722 0
-0.798087 0.514405 0
-3.82694 2.35813 0
-8.14173 9.09041 0
0.319074 -0.390748 0
0.129715 -0.679852 0
-0.204925 -0.676554 0
-0.350327 -0.384443 0
-0.524623 -0.798931 0
-0.277254 -1.55632 0
0.256506 -1.56189 0
0.499367 -0.791515 0
-2.37629 -3.83514 0
-1.31593 -7.50244 0
1.25945 -7.5137 0
2.35894 -3.81508 0
-9.09289 -8.15702 0
-4.94284 -15.9204 0
4.93751 -15.9328 0
9.09351 -8.12571 0
-0.339277 -0.415045 0
-0.229093 -0.145787 0
-0.100838 -0.0380292 0
-0.0425944 0.00512301 0
0.524527 -0.929961 0
0.23372 -0.207766 0
0.039199 -0.065251 0
0.0380521 0.0695643 0
2.40454 -4.34887 0
1.0687 -1.09144 0
0.179955 -0.263011 0
0.108447 0.206082 0
9.15002 -9.15745 0
4.31497 -2.41142 0
0.902529 -0.535149 0
0.42781 0.342031 0
-8.08765 -8.06899 0
-4.43031 -15.8513 0
4.37657 -15.8726 0
8.08785 -8.0516 0
-15.8707 -4.40997 0
-8.71353 -8.7084 0
8.67025 -8.70828 0
15.8781 -4.40189 0
-15.8773 4.40913 0
-8.72777 8.68407 0
8.67962 8.69183 0
15.8794 4.38439 0
-8.05383 8.07888 0
-4.41505 15.8794 0
4.38209 15.907 0
8.0419 8.07674 0
8.1461 -9.08463 0
3.8083 -2.36141 0
0.772241 -0.512464 0
0.369168 0.339913 0
15.9084 -4.95733 0
7.4788 -1.29177 0
1.53143 -0.270618 0
0.66205 0.175014 0
15.9142 4.93221 0
7.49368 1.28536 0
1.53904 0.265952 0
0.661437 -0.165735 0
8.10528 9.1134 0
3.79531 2.37437 0
0.767644 0.517473 0
0.357247 -0.341057 0
-0.427776 -0.327986 0
-0.933067 0.533269 0
-4.35471 2.41587 0
-9.1726 9.16021 0
-0.155011 -0.234521 0
-0.210326 0.252302 0
-1.09536 1.07772 0
-2.42462 4.34678 0
-0.0476115 -0.102174 0
-0.0635906 0.0506054 0
-0.264531 0.188595 0
-0.554643 0.920336 0
-0.00858791 -0.0134804 0
0.0731403 0.0259926 0
0.197825 0.107767 0
0.294248 0.323367 0
-9.08296 8.15594 0
-4.97587 15.9265 0
4.92742 15.9361 0
9.08453 8.12483 0
-2.36328 3.81927 0
-1.29618 7.49448 0
1.28339 7.5032 0
2.35279 3.809 0
-0.523507 0.779632 0
-0.284126 1.53926 0
0.257673 1.54332 0
0.508911 0.77916 0
0.306198 0.296618 0
0.159705 0.503745 0
-0.152349 0.50396 0
-0.320788 0.292255 0
-0.00776777 -0.0242155 0
0.0732503 -0.0512876 0
0.198731 -0.134805 0
0.296952 -0.341757 0
-0.0401163 0.0620082 0
-0.0606452 -0.076414 0
-0.263037 -0.217449 0
-0.550381 -0.935986 0
-0.138384 0.198382 0
-0.203858 -0.275974 0
-1.09043 -1.10172 0
-2.41177 -4.36066 0
-0.407774 0.304063 0
-0.921869 -0.561008 0
-4.34809 -2.43679 0
-9.16257 -9.1876 0
0.308939 -0.317158 0
0.162348 -0.530124 0
-0.151714 -0.526714 0
-0.322714 -0.315117 0
-0.524288 -0.797144 0
-0.282749 -1.56038 0
0.260705 -1.5567 0
0.509226 -0.797686 0
-2.36372 -3.82457 0
-1.28878 -7.51976 0
1.29086 -7.51337 0
2.34635 -3.8374 0
-9.09899 -8.15344 0
-4.96992 -15.9619 0
4.93892 -15.9444 0
9.07067 -8.17086 0
9.15944 9.16349 0
4.34501 2.41052 0
0.915499 0.543517 0
0.320082 -0.304527 0
2.40826 4.35372 0
1.07491 1.07896 0
0.189138 0.259028 0
0.111195 -0.218688 0
0.537452 0.923954 0
0.252429 0.193789 0
0.0507065 0.0567449 0
0.028796 -0.0903392 0
-0.307799 0.320578 0
-0.221243 0.112008 0
-0.0932394 0.0326466 0
-0.00359058 -0.000643837 0
-0.339128 -0.302587 0
-0.941015 0.542137 0
-4.36716 2.41113 0
-9.17335 9.15898 0
-0.131915 -0.217255 0
-0.213877 0.258048 0
-1.09908 1.0794 0
-2.42981 4.35164 0
-0.0497735 -0.0934097 0
-0.0759591 0.0577859 0
-0.275197 0.191307 0
-0.553037 0.927963 0
-0.0116494 -0.0194875 0
0.0678005 0.0456669 0
0.205028 0.126674 0
0.316828 0.428238 0
-0.309875 -0.338641 0
-0.224742 -0.131136 0
-0.0996896 -0.0460288 0
-0.0243907 -0.00902385 0
0.537697 -0.934403 0
0.254658 -0.210806 0
0.0545026 -0.0711495 0
0.0409277 0.0699594 0
2.40316 -4.36224 0
1.07395 -1.09837 0
0.187405 -0.271276 0
0.1201 0.205657 0
9.15317 -9.17518 0
4.35148 -2.43285 0
0.928367 -0.551288 0
0.421255 0.316626 0
-0.0397052 -0.0351328 0
-0.0131499 0.00283585 0
-0.0173311 0.00358229 0
-0.041903 0.0963409 0
-0.000969748 -0.00895536 0
-0.00875083 -0.0049906 0
-0.0128896 -0.00892032 0
-0.0200343 -0.00107264 0
-0.000882019 -0.0141341 0
-0.0128857 -0.00974727 0
-0.00971149 -0.00649042 0
-0.0113651 -0.0104095 0
0.0930354 -0.0400631 0
-0.00456348 -0.0178682 0
-0.0135071 -0.00914325 0
-0.023512 -0.0212012 0
-9.08469 8.14777 0
-4.95636 15.9169 0
4.94647 15.9342 0
9.07355 8.12944 0
-2.3709 3.82113 0
-1.31297 7.49754 0
1.27031 7.50371 0
2.3475 3.80789 0
-0.525621 0.784081 0
-0.279163 1.54705 0
0.259914 1.55051 0
0.500394 0.783692 0
0.322976 0.376399 0
0.14306 0.671698 0
-0.194587 0.674118 0
-0.349562 0.378778 0
9.13663 9.1629 0
4.32758 2.41539 0
0.910514 0.537273 0
0.422912 -0.342301 0
2.39527 4.34536 0
1.07406 1.08424 0
0.184065 0.261172 0
0.103023 -0.210945 0
0.524127 0.928122 0
0.245044 0.198992 0
0.0487507 0.0651565 0
0.0392669 -0.0764259 0
-0.344867 0.430802 0
-0.221214 0.129581 0
-0.0917109 0.0460078 0
-0.0478722 -0.0259414 0
-0.0349846 0.0706342 0
-0.0256615 0.154286 0
-0.000801395 0.155442 0
0.0089167 0.071471 0
-0.0172535 -0.00436482 0
-0.0146593 0.000173897 0
-0.00920381 0.0012838 0
-0.00677701 -0.00171155 0
-0.00853799 -0.00701124 0
-0.00980225 -0.00542406 0
-0.0124709 -0.00434999 0
-0.0138277 -0.00391198 0
-0.0169786 -0.0138998 0
-0.0131617 -0.0167543 0
-0.00610888 -0.0155468 0
-0.00273245 -0.0102607 0
0.0147068 0.0978182 0
-0.00928443 0.0086296 0
-0.0175681 0.0104301 0
-0.00810357 -0.0184221 0
-0.00516859 0.00307859 0
-0.0108071 -0.00513191 0
-0.0132152 0.000629292 0
-0.0110072 -0.00438058 0
-0.013547 -0.00291665 0
-0.0132866 -0.0034705 0
-0.0124968 -0.00106345 0
-0.0119118 -0.000893543 0
-0.00257249 -0.0105688 0
-0.00542423 -0.00557475 0
-0.00828063 -0.00224098 0
-0.00906176 -4.87149e-05 0
-0.373863 0.313927 0
-0.784806 -0.537735 0
-3.81314 -2.39304 0
-8.12428 -9.13147 0
-0.668576 0.145546 0
-1.55329 -0.285327 0
-7.51091 -1.3047 0
-15.933 -4.95144 0
-0.674512 -0.189333 0
-1.5474 0.252227 0
-7.49672 1.27146 0
-15.9273 4.93649 0
-0.385987 -0.355424 0
-0.790856 0.492479 0
-3.82751 2.33879 0
-8.16541 9.06144 0
-8.06077 -8.09487 0
-4.40183 -15.9251 0
4.39443 -15.8973 0
8.03265 -8.09621 0
-15.8981 -4.40374 0
-8.6992 -8.71113 0
8.70757 -8.70308 0
15.8566 -4.42758 0
-15.897 4.38094 0
-8.68971 8.68722 0
8.69381 8.68764 0
15.8509 4.38999 0
-8.10723 8.02806 0
-4.39592 15.849 0
4.41114 15.8281 0
8.06909 8.04657 0
-0.420545 -0.345275 0
-0.915785 0.517934 0
-4.33313 2.38947 0
-9.16872 9.13421 0
-0.143887 -0.236497 0
-0.204446 0.237484 0
-1.09015 1.06386 0
-2.42384 4.32285 0
-0.0391763 -0.109755 0
-0.059381 0.0384411 0
-0.256207 0.171345 0
-0.539788 0.90465 0
0.00865713 -0.0603207 0
0.0641662 0.0275133 0
0.197986 0.086191 0
0.339354 0.412737 0
-9.11243 8.10226 0
-4.95683 15.9092 0
4.92371 15.8972 0
9.07442 8.13447 0
-2.37868 3.78759 0
-1.27858 7.4868 0
1.29728 7.47587 0
2.35871 3.80943 0
-0.517446 0.758178 0
-0.274855 1.5316 0
0.258761 1.52581 0
0.507971 0.768914 0
0.337478 0.343188 0
0.188021 0.645221 0
-0.149567 0.645014 0
-0.336884 0.35711 0
8.11477 -9.10046 0
3.80571 -2.37773 0
0.778746 -0.52459 0
0.36747 0.323052 0
15.9229 -4.94859 0
7.50171 -1.30795 0
1.54803 -0.276786 0
0.663575 0.144975 0
15.9143 4.94593 0
7.49456 1.27289 0
1.546 0.25856 0
0.66561 -0.192527 0
8.14929 9.04748 0
3.82076 2.33937 0
0.784827 0.494396 0
0.376013 -0.349444 0
0.0656151 -0.0331727 0
-0.00836675 -0.0150828 0
-0.0102359 -0.00631942 0
-0.016157 -0.0146721 0
0.150258 -0.0244228 0
-0.00342599 -0.013396 0
-0.00853725 -0.00860587 0
-0.0188923 -0.0116628 0
0.150459 -0.00139853 0
-0.00239028 -0.00931426 0
-0.0073295 -0.012301 0
-0.0175035 -0.00560677 0
0.0697262 0.00628463 0
-0.00444545 -0.00837248 0
-0.00635801 -0.0146412 0
-0.011994 -0.00321472 0
9.15279 9.13665 0
4.34943 2.40061 0
0.930394 0.523753 0
0.4287 -0.342901 0
2.4142 4.31993 0
1.08148 1.06779 0
0.192866 0.238776 0
0.126217 -0.224295 0
0.532503 0.902408 0
0.262483 0.175475 0
0.0656737 0.0419447 0
0.0463808 -0.0961228 0
-0.337768 0.418268 0
-0.215502 0.100334 0
-0.0817993 0.0371388 0
-0.0282565 -0.0502842 0
0.0974614 0.0139365 0
0.00107958 -0.00614804 0
-0.00511364 -0.0141861 0
-0.0121846 -0.00299038 0
0.0053765 -0.01328 0
-0.00781593 -0.01357 0
-0.00545689 -0.0149557 0
-0.00693983 -0.00650414 0
0.0108529 -0.0219651 0
8.96454e-05 -0.0163116 0
-0.00184475 -0.0144301 0
-0.00288843 -0.00945922 0
-0.0210422 -0.0102632 0
-0.00541108 -0.0131137 0
-0.00121693 -0.0132607 0
-0.000158868 -0.0097339 0
-0.0102096 -0.00793901 0
-0.0099546 -0.00706175 0
-0.00986546 -0.00584939 0
-0.00974352 -0.00434939 0
-0.00927492 -0.00859221 0
-0.00879011 -0.00739363 0
-0.00848949 -0.00604798 0
-0.00829844 -0.00459265 0
-0.00795638 -0.00941044 0
-0.00739883 -0.00789335 0
-0.00701719 -0.00636898 0
-0.00677917 -0.00482095 0
-0.00619458 -0.0101276 0
-0.00577447 -0.0083895 0
-0.00541445 -0.00670235 0
-0.00517029 -0.00504406 0
-0.00966551 -0.00418422 0
-0.00973186 -0.0031189 0
-0.00990373 -0.00144778 0
-0.0101196 -0.000194032 0
-0.00828165 -0.0045558 0
-0.00824275 -0.00312232 0
-0.0083523 -0.00154142 0
-0.00863357 -3.57064e-05 0
-0.0067782 -0.00481224 0
-0.00668495 -0.00324548 0
-0.00675885 -0.00163001 0
-0.00704834 -6.62756e-06 0
-0.00516593 -0.00504412 0
-0.00505351 -0.0033848 0
-0.00510127 -0.0017123 0
-0.00535685 1.45879e-06 0
-0.00594238 -0.00999476 0
-0.00571277 -0.00835218 0
-0.0053986 -0.00669234 0
-0.00516875 -0.00503367 0
-0.00455394 -0.0107308 0
-0.00402411 -0.00877009 0
-0.00369163 -0.00693353 0
-0.00347778 -0.00518015 0
-0.00213651 -0.0110324 0
-0.00200227 -0.00889692 0
-0.00185215 -0.00696232 0