# vtk DataFile Version 3.0
#This file was generated by the deal.II library on 2020/8/22 at 21:54:04
ASCII
DATASET UNSTRUCTURED_GRID

POINTS 2304 double
-1 -1 0
-0.944444 -1 0
-0.888889 -1 0
-0.833333 -1 0
-1 -0.944444 0
-0.944444 -0.944444 0
-0.888889 -0.944444 0
-0.833333 -0.944444 0
-1 -0.888889 0
-0.944444 -0.888889 0
-0.888889 -0.888889 0
-0.833333 -0.888889 0
-1 -0.833333 0
-0.944444 -0.833333 0
-0.888889 -0.833333 0
-0.833333 -0.833333 0
-0.833333 -1 0
-0.777778 -1 0
-0.722222 -1 0
-0.666667 -1 0
-0.833333 -0.944444 0
-0.777778 -0.944444 0
-0.722222 -0.944444 0
-0.666667 -0.944444 0
-0.833333 -0.888889 0
-0.777778 -0.888889 0
-0.722222 -0.888889 0
-0.666667 -0.888889 0
-0.833333 -0.833333 0
-0.777778 -0.833333 0
-0.722222 -0.833333 0
-0.666667 -0.833333 0
-1 -0.833333 0
-0.944444 -0.833333 0
-0.888889 -0.833333 0
-0.833333 -0.833333 0
-1 -0.777778 0
-0.944444 -0.777778 0
-0.888889 -0.777778 0
-0.833333 -0.777778 0
-1 -0.722222 0
-0.944444 -0.722222 0
-0.888889 -0.722222 0
-0.833333 -0.722222 0
-1 -0.666667 0
-0.944444 -0.666667 0
-0.888889 -0.666667 0
-0.833333 -0.666667 0
-0.833333 -0.833333 0
-0.777778 -0.833333 0
-0.722222 -0.833333 0
-0.666667 -0.833333 0
-0.833333 -0.777778 0
-0.777778 -0.777778 0
-0.722222 -0.777778 0
-0.666667 -0.777778 0
-0.833333 -0.722222 0
-0.777778 -0.722222 0
-0.722222 -0.722222 0
-0.666667 -0.722222 0
-0.833333 -0.666667 0
-0.777778 -0.666667 0
-0.722222 -0.666667 0
-0.666667 -0.666667 0
-0.666667 -1 0
-0.611111 -1 0
-0.555556 -1 0
-0.5 -1 0
-0.666667 -0.944444 0
-0.611111 -0.944444 0
-0.555556 -0.944444 0
-0.5 -0.944444 0
-0.666667 -0.888889 0
-0.611111 -0.888889 0
-0.555556 -0.888889 0
-0.5 -0.888889 0
-0.666667 -0.833333 0
-0.611111 -0.833333 0
-0.555556 -0.833333 0
-0.5 -0.833333 0
-0.5 -1 0
-0.444444 -1 0
-0.388889 -1 0
-0.333333 -1 0
-0.5 -0.944444 0
-0.444444 -0.944444 0
-0.388889 -0.944444 0
-0.333333 -0.944444 0
-0.5 -0.888889 0
-0.444444 -0.888889 0
-0.388889 -0.888889 0
-0.333333 -0.888889 0
-0.5 -0.833333 0
-0.444444 -0.833333 0
-0.388889 -0.833333 0
-0.333333 -0.833333 0
-0.666667 -0.833333 0
-0.611111 -0.833333 0
-0.555556 -0.833333 0
-0.5 -0.833333 0
-0.666667 -0.777778 0
-0.611111 -0.777778 0
-0.555556 -0.777778 0
-0.5 -0.777778 0
-0.666667 -0.722222 0
-0.611111 -0.722222 0
-0.555556 -0.722222 0
-0.5 -0.722222 0
-0.666667 -0.666667 0
-0.611111 -0.666667 0
-0.555556 -0.666667 0
-0.5 -0.666667 0
-0.5 -0.833333 0
-0.444444 -0.833333 0
-0.388889 -0.833333 0
-0.333333 -0.833333 0
-0.5 -0.777778 0
-0.444444 -0.777778 0
-0.388889 -0.777778 0
-0.333333 -0.777778 0
-0.5 -0.722222 0
-0.444444 -0.722222 0
-0.388889 -0.722222 0
-0.333333 -0.722222 0
-0.5 -0.666667 0
-0.444444 -0.666667 0
-0.388889 -0.666667 0
-0.333333 -0.666667 0
-1 -0.666667 0
-0.944444 -0.666667 0
-0.888889 -0.666667 0
-0.833333 -0.666667 0
-1 -0.611111 0
-0.944444 -0.611111 0
-0.888889 -0.611111 0
-0.833333 -0.611111 0
-1 -0.555556 0
-0.944444 -0.555556 0
-0.888889 -0.555556 0
-0.833333 -0.555556 0
-1 -0.5 0
-0.944444 -0.5 0
-0.888889 -0.5 0
-0.833333 -0.5 0
-0.833333 -0.666667 0
-0.777778 -0.666667 0
-0.722222 -0.666667 0
-0.666667 -0.666667 0
-0.833333 -0.611111 0
-0.777778 -0.611111 0
-0.722222 -0.611111 0
-0.666667 -0.611111 0
-0.833333 -0.555556 0
-0.777778 -0.555556 0
-0.722222 -0.555556 0
-0.666667 -0.555556 0
-0.833333 -0.5 0
-0.777778 -0.5 0
-0.722222 -0.5 0
-0.666667 -0.5 0
-1 -0.5 0
-0.944444 -0.5 0
-0.888889 -0.5 0
-0.833333 -0.5 0
-1 -0.444444 0
-0.944444 -0.444444 0
-0.888889 -0.444444 0
-0.833333 -0.444444 0
-1 -0.388889 0
-0.944444 -0.388889 0
-0.888889 -0.388889 0
-0.833333 -0.388889 0
-1 -0.333333 0
-0.944444 -0.333333 0
-0.888889 -0.333333 0
-0.833333 -0.333333 0
-0.833333 -0.5 0
-0.777778 -0.5 0
-0.722222 -0.5 0
-0.666667 -0.5 0
-0.833333 -0.444444 0
-0.777778 -0.444444 0
-0.722222 -0.444444 0
-0.666667 -0.444444 0
-0.833333 -0.388889 0
-0.777778 -0.388889 0
-0.722222 -0.388889 0
-0.666667 -0.388889 0
-0.833333 -0.333333 0
-0.777778 -0.333333 0
-0.722222 -0.333333 0
-0.666667 -0.333333 0
-0.666667 -0.666667 0
-0.611111 -0.666667 0
-0.555556 -0.666667 0
-0.5 -0.666667 0
-0.666667 -0.611111 0
-0.611111 -0.611111 0
-0.555556 -0.611111 0
-0.5 -0.611111 0
-0.666667 -0.555556 0
-0.611111 -0.555556 0
-0.555556 -0.555556 0
-0.5 -0.555556 0
-0.666667 -0.5 0
-0.611111 -0.5 0
-0.555556 -0.5 0
-0.5 -0.5 0
-0.5 -0.666667 0
-0.444444 -0.666667 0
-0.388889 -0.666667 0
-0.333333 -0.666667 0
-0.5 -0.611111 0
-0.444444 -0.611111 0
-0.388889 -0.611111 0
-0.333333 -0.611111 0
-0.5 -0.555556 0
-0.444444 -0.555556 0
-0.388889 -0.555556 0
-0.333333 -0.555556 0
-0.5 -0.5 0
-0.444444 -0.5 0
-0.388889 -0.5 0
-0.333333 -0.5 0
-0.666667 -0.5 0
-0.611111 -0.5 0
-0.555556 -0.5 0
-0.5 -0.5 0
-0.666667 -0.444444 0
-0.611111 -0.444444 0
-0.555556 -0.444444 0
-0.5 -0.444444 0
-0.666667 -0.388889 0
-0.611111 -0.388889 0
-0.555556 -0.388889 0
-0.5 -0.388889 0
-0.666667 -0.333333 0
-0.611111 -0.333333 0
-0.555556 -0.333333 0
-0.5 -0.333333 0
-0.5 -0.5 0
-0.444444 -0.5 0
-0.388889 -0.5 0
-0.333333 -0.5 0
-0.5 -0.444444 0
-0.444444 -0.444444 0
-0.388889 -0.444444 0
-0.333333 -0.444444 0
-0.5 -0.388889 0
-0.444444 -0.388889 0
-0.388889 -0.388889 0
-0.333333 -0.388889 0
-0.5 -0.333333 0
-0.444444 -0.333333 0
-0.388889 -0.333333 0
-0.333333 -0.333333 0
-0.333333 -1 0
-0.277778 -1 0
-0.222222 -1 0
-0.166667 -1 0
-0.333333 -0.944444 0
-0.277778 -0.944444 0
-0.222222 -0.944444 0
-0.166667 -0.944444 0
-0.333333 -0.888889 0
-0.277778 -0.888889 0
-0.222222 -0.888889 0
-0.166667 -0.888889 0
-0.333333 -0.833333 0
-0.277778 -0.833333 0
-0.222222 -0.833333 0
-0.166667 -0.833333 0
-0.166667 -1 0
-0.111111 -1 0
-0.0555556 -1 0
-5.55112e-17 -1 0
-0.166667 -0.944444 0
-0.111111 -0.944444 0
-0.0555556 -0.944444 0
-5.55112e-17 -0.944444 0
-0.166667 -0.888889 0
-0.111111 -0.888889 0
-0.0555556 -0.888889 0
-5.55112e-17 -0.888889 0
-0.166667 -0.833333 0
-0.111111 -0.833333 0
-0.0555556 -0.833333 0
-5.55112e-17 -0.833333 0
-0.333333 -0.833333 0
-0.277778 -0.833333 0
-0.222222 -0.833333 0
-0.166667 -0.833333 0
-0.333333 -0.777778 0
-0.277778 -0.777778 0
-0.222222 -0.777778 0
-0.166667 -0.777778 0
-0.333333 -0.722222 0
-0.277778 -0.722222 0
-0.222222 -0.722222 0
-0.166667 -0.722222 0
-0.333333 -0.666667 0
-0.277778 -0.666667 0
-0.222222 -0.666667 0
-0.166667 -0.666667 0
-0.166667 -0.833333 0
-0.111111 -0.833333 0
-0.0555556 -0.833333 0
-5.55112e-17 -0.833333 0
-0.166667 -0.777778 0
-0.111111 -0.777778 0
-0.0555556 -0.777778 0
-5.55112e-17 -0.777778 0
-0.166667 -0.722222 0
-0.111111 -0.722222 0
-0.0555556 -0.722222 0
-5.55112e-17 -0.722222 0
-0.166667 -0.666667 0
-0.111111 -0.666667 0
-0.0555556 -0.666667 0
-5.55112e-17 -0.666667 0
-5.55112e-17 -1 0
0.0555556 -1 0
0.111111 -1 0
0.166667 -1 0
-5.55112e-17 -0.944444 0
0.0555556 -0.944444 0
0.111111 -0.944444 0
0.166667 -0.944444 0
-5.55112e-17 -0.888889 0
0.0555556 -0.888889 0
0.111111 -0.888889 0
0.166667 -0.888889 0
-5.55112e-17 -0.833333 0
0.0555556 -0.833333 0
0.111111 -0.833333 0
0.166667 -0.833333 0
0.166667 -1 0
0.222222 -1 0
0.277778 -1 0
0.333333 -1 0
0.166667 -0.944444 0
0.222222 -0.944444 0
0.277778 -0.944444 0
0.333333 -0.944444 0
0.166667 -0.888889 0
0.222222 -0.888889 0
0.277778 -0.888889 0
0.333333 -0.888889 0
0.166667 -0.833333 0
0.222222 -0.833333 0
0.277778 -0.833333 0
0.333333 -0.833333 0
-5.55112e-17 -0.833333 0
0.0555556 -0.833333 0
0.111111 -0.833333 0
0.166667 -0.833333 0
-5.55112e-17 -0.777778 0
0.0555556 -0.777778 0
0.111111 -0.777778 0
0.166667 -0.777778 0
-5.55112e-17 -0.722222 0
0.0555556 -0.722222 0
0.111111 -0.722222 0
0.166667 -0.722222 0
-5.55112e-17 -0.666667 0
0.0555556 -0.666667 0
0.111111 -0.666667 0
0.166667 -0.666667 0
0.166667 -0.833333 0
0.222222 -0.833333 0
0.277778 -0.833333 0
0.333333 -0.833333 0
0.166667 -0.777778 0
0.222222 -0.777778 0
0.277778 -0.777778 0
0.333333 -0.777778 0
0.166667 -0.722222 0
0.222222 -0.722222 0
0.277778 -0.722222 0
0.333333 -0.722222 0
0.166667 -0.666667 0
0.222222 -0.666667 0
0.277778 -0.666667 0
0.333333 -0.666667 0
-0.333333 -0.666667 0
-0.277778 -0.666667 0
-0.222222 -0.666667 0
-0.166667 -0.666667 0
-0.333333 -0.611111 0
-0.277778 -0.611111 0
-0.222222 -0.611111 0
-0.166667 -0.611111 0
-0.333333 -0.555556 0
-0.277778 -0.555556 0
-0.222222 -0.555556 0
-0.166667 -0.555556 0
-0.333333 -0.5 0
-0.277778 -0.5 0
-0.222222 -0.5 0
-0.166667 -0.5 0
-0.166667 -0.666667 0
-0.111111 -0.666667 0
-0.0555556 -0.666667 0
-5.55112e-17 -0.666667 0
-0.166667 -0.611111 0
-0.111111 -0.611111 0
-0.0555556 -0.611111 0
-5.55112e-17 -0.611111 0
-0.166667 -0.555556 0
-0.111111 -0.555556 0
-0.0555556 -0.555556 0
-5.55112e-17 -0.555556 0
-0.166667 -0.5 0
-0.111111 -0.5 0
-0.0555556 -0.5 0
-5.55112e-17 -0.5 0
-0.333333 -0.5 0
-0.277778 -0.5 0
-0.222222 -0.5 0
-0.166667 -0.5 0
-0.333333 -0.444444 0
-0.277778 -0.444444 0
-0.222222 -0.444444 0
-0.166667 -0.444444 0
-0.333333 -0.388889 0
-0.277778 -0.388889 0
-0.222222 -0.388889 0
-0.166667 -0.388889 0
-0.333333 -0.333333 0
-0.277778 -0.333333 0
-0.222222 -0.333333 0
-0.166667 -0.333333 0
-0.166667 -0.5 0
-0.111111 -0.5 0
-0.0555556 -0.5 0
-5.55112e-17 -0.5 0
-0.166667 -0.444444 0
-0.111111 -0.444444 0
-0.0555556 -0.444444 0
-5.55112e-17 -0.444444 0
-0.166667 -0.388889 0
-0.111111 -0.388889 0
-0.0555556 -0.388889 0
-5.55112e-17 -0.388889 0
-0.166667 -0.333333 0
-0.111111 -0.333333 0
-0.0555556 -0.333333 0
-5.55112e-17 -0.333333 0
-5.55112e-17 -0.666667 0
0.0555556 -0.666667 0
0.111111 -0.666667 0
0.166667 -0.666667 0
-5.55112e-17 -0.611111 0
0.0555556 -0.611111 0
0.111111 -0.611111 0
0.166667 -0.611111 0
-5.55112e-17 -0.555556 0
0.0555556 -0.555556 0
0.111111 -0.555556 0
0.166667 -0.555556 0
-5.55112e-17 -0.5 0
0.0555556 -0.5 0
0.111111 -0.5 0
0.166667 -0.5 0
0.166667 -0.666667 0
0.222222 -0.666667 0
0.277778 -0.666667 0
0.333333 -0.666667 0
0.166667 -0.611111 0
0.222222 -0.611111 0
0.277778 -0.611111 0
0.333333 -0.611111 0
0.166667 -0.555556 0
0.222222 -0.555556 0
0.277778 -0.555556 0
0.333333 -0.555556 0
0.166667 -0.5 0
0.222222 -0.5 0
0.277778 -0.5 0
0.333333 -0.5 0
-5.55112e-17 -0.5 0
[...]
POINT_DATA 2304
VECTORS gradient double
-0.000289654 -0.000301744 0
-0.00109803 -0.00139323 0
-0.00307059 -0.00447274 0
-0.0070163 -0.012151 0
-0.0013911 -0.00111022 0
-0.00446027 -0.00446349 0
-0.0125773 -0.0143671 0
-0.0292237 -0.0387845 0
-0.00446054 -0.00309621 0
-0.0143605 -0.0125841 0
-0.0404287 -0.0404498 0
-0.0938633 -0.109231 0
-0.0121399 -0.00705806 0
-0.0387945 -0.0292294 0
-0.109234 -0.0939036 0
-0.253819 -0.253818 0
-0.00762659 -0.0123204 0
-0.0134457 -0.0286811 0
-0.0214658 -0.0573315 0
-0.0285376 -0.0989774 0
-0.0302296 -0.0371294 0
-0.056993 -0.092493 0
-0.0912076 -0.181856 0
-0.119275 -0.317552 0
-0.0960807 -0.105309 0
-0.183259 -0.260032 0
-0.292831 -0.512264 0
-0.381212 -0.893026 0
-0.258631 -0.246614 0
-0.496168 -0.603252 0
-0.792795 -1.19146 0
-1.03044 -2.07377 0
-0.0124811 -0.00775463 0
-0.0370518 -0.0303166 0
-0.105091 -0.0962434 0
-0.246295 -0.258829 0
-0.0285694 -0.0134764 0
-0.0925551 -0.0569591 0
-0.260144 -0.183284 0
-0.603378 -0.49612 0
-0.0573619 -0.0214678 0
-0.181862 -0.0911024 0
-0.512199 -0.292783 0
-1.19133 -0.792598 0
-0.0987487 -0.0286909 0
-0.317679 -0.119283 0
-0.893253 -0.381359 0
-2.07402 -1.03054 0
-0.251102 -0.251613 0
-0.484511 -0.612949 0
-0.77738 -1.20819 0
-1.01317 -2.09961 0
-0.6128 -0.484789 0
-1.1781 -1.17797 0
-1.8802 -2.33108 0
-2.43921 -4.05245 0
-1.20774 -0.777369 0
-2.33098 -1.88 0
-3.72456 -3.72443 0
-4.83248 -6.46927 0
-2.09959 -1.01313 0
-4.05272 -2.43964 0
-6.46955 -4.83278 0
-8.3847 -8.3853 0
-0.0263368 -0.0987378 0
-0.0277788 -0.144847 0
-0.0177067 -0.182826 0
0.0015711 -0.196766 0
-0.115303 -0.320201 0
-0.116247 -0.45907 0
-0.0736013 -0.584869 0
0.00296109 -0.621517 0
-0.371879 -0.899376 0
-0.371251 -1.29278 0
-0.234695 -1.64485 0
0.00695556 -1.75054 0
-1.00921 -2.08564 0
-1.00349 -3.00764 0
-0.633939 -3.82175 0
0.0160568 -4.07492 0
-0.00163545 -0.196795 0
0.0177049 -0.182691 0
0.0277067 -0.144683 0
0.0262995 -0.0984831 0
-0.00292129 -0.621513 0
0.0736857 -0.584917 0
0.11621 -0.459146 0
0.115264 -0.320317 0
-0.00701941 -1.75052 0
0.234729 -1.64479 0
0.371156 -1.29266 0
0.371847 -0.899338 0
-0.0159786 -4.0749 0
0.634153 -3.82189 0
1.00343 -3.00786 0
1.00918 -2.08593 0
-0.992132 -2.11149 0
-0.988114 -3.04264 0
-0.624314 -3.86398 0
0.016979 -4.11955 0
-2.39561 -4.07144 0
-2.37474 -5.88507 0
-1.4995 -7.47035 0
0.0327193 -7.97572 0
-4.75395 -6.49526 0
-4.70743 -9.40283 0
-2.97202 -11.928 0
0.0604791 -12.7463 0
-8.25839 -8.41536 0
-8.16606 -12.19 0
-5.1547 -15.4538 0
0.0957587 -16.5215 0
-0.014742 -4.11954 0
0.626303 -3.86397 0
0.988963 -3.04261 0
0.992037 -2.11153 0
-0.0335793 -7.97574 0
1.49898 -7.47023 0
2.37425 -5.8849 0
2.39561 -4.07129 0
-0.0595639 -12.7464 0
2.97297 -11.9283 0
4.70767 -9.40343 0
4.75392 -6.49577 0
-0.0982055 -16.5217 0
5.15281 -15.4527 0
8.16488 -12.1885 0
8.25851 -8.41348 0
-0.0983291 -0.0262315 0
-0.320448 -0.115056 0
-0.899896 -0.371621 0
-2.08634 -1.00863 0
-0.144905 -0.0279093 0
-0.459019 -0.116228 0
-1.29255 -0.371315 0
-3.00721 -1.00342 0
-0.182552 -0.0179182 0
-0.584991 -0.0737163 0
-1.64507 -0.23491 0
-3.82193 -0.634153 0
-0.196926 0.00170244 0
-0.621372 0.00310899 0
-1.75008 0.00721735 0
-4.07406 0.0165541 0
-2.11192 -0.991416 0
-4.07225 -2.39504 0
-6.49598 -4.75296 0
-8.4149 -8.25766 0
-3.04212 -0.987483 0
-5.88466 -2.37514 0
-9.40268 -4.70725 0
-12.1899 -8.16684 0
-3.86434 -0.623602 0
-7.47063 -1.50037 0
-11.9283 -2.97205 0
-15.4538 -5.15613 0
-4.11921 0.0184919 0
-7.97483 0.0329437 0
-12.7456 0.0618613 0
-16.5219 0.0957207 0
-0.196897 -0.00180992 0
-0.621372 -0.00308566 0
-1.7501 -0.00726645 0
-4.07406 -0.016369 0
-0.182444 0.0177687 0
-0.585039 0.0736839 0
-1.64504 0.234778 0
-3.82207 0.634151 0
-0.144676 0.0279129 0
-0.459097 0.116305 0
-1.2925 0.371375 0
-3.00743 1.00361 0
-0.0981925 0.0262787 0
-0.320493 0.115106 0
-0.899768 0.371667 0
-2.08648 1.00866 0
-4.11921 -0.0141109 0
-7.97481 -0.0347041 0
-12.7455 -0.0599856 0
-16.5218 -0.100278 0
-3.86491 0.627082 0
-7.47048 1.4987 0
-11.9284 2.9734 0
-15.4535 5.15222 0
-3.04308 0.989469 0
-5.88438 2.3745 0
-9.40286 4.70821 0
-12.1891 8.16508 0
-2.11292 0.991369 0
-4.07191 2.39507 0
-6.49625 4.75292 0
-8.41459 8.25773 0
-8.28831 -8.28744 0
-8.19342 -12.0137 0
-5.17197 -15.2379 0
0.0941442 -16.2933 0
-12.0145 -8.19456 0
-11.877 -11.8767 0
-7.49675 -15.0549 0
0.136114 -16.0998 0
-15.2382 -5.17424 0
-15.0544 -7.49619 0
-9.50146 -9.50235 0
0.165065 -10.1599 0
-16.2932 0.093005 0
-16.1008 0.137942 0
-10.1618 0.164494 0
0.179533 0.181373 0
-0.100293 -16.2935 0
5.16702 -15.2386 0
8.19068 -12.015 0
8.28851 -8.28847 0
-0.133736 -16.1001 0
7.49869 -15.0547 0
11.8779 -11.8766 0
12.0146 -8.19409 0
-0.167275 -10.1602 0
9.49942 -9.50177 0
15.0533 -7.49557 0
15.2384 -5.17306 0
-0.1729 0.181189 0
10.1669 0.163051 0
16.1035 0.135425 0
16.2932 0.0908487 0
-16.293 -0.103455 0
-16.1006 -0.133741 0
-10.1615 -0.168972 0
0.179777 -0.17112 0
-15.2379 5.16545 0
-15.0546 7.4997 0
-9.50146 9.49884 0
0.164685 10.1688 0
-12.0137 8.19028 0
-11.8771 11.8787 0
-7.49648 15.0531 0
0.135912 16.1044 0
-8.28754 8.28763 0
-8.19397 12.0135 0
-5.1723 15.2378 0
0.0937568 16.2928 0
-0.172712 -0.171378 0
10.167 -0.167523 0
16.1034 -0.131746 0
16.293 -0.101056 0
-0.166896 10.1687 0
9.4992 9.4985 0
15.0535 7.49906 0
15.2382 5.16498 0
-0.133015 16.1044 0
7.49847 15.0529 0
11.8782 11.8784 0
12.014 8.1899 0
-0.10015 16.293 0
5.16667 15.2384 0
8.19111 12.0146 0
8.28797 8.28846 0
0.0285399 -0.098735 0
0.0214559 -0.0572015 0
0.013489 -0.0285561 0
0.00768263 -0.0123321 0
0.119272 -0.317658 0
0.0911678 -0.181936 0
0.0569992 -0.0925512 0
0.0302391 -0.0371471 0
0.381228 -0.892971 0
0.292815 -0.512199 0
0.183312 -0.26001 0
0.0960933 -0.105269 0
1.03047 -2.07404 0
0.792708 -1.19165 0
0.496156 -0.603381 0
0.258509 -0.24668 0
0.00708613 -0.0121002 0
0.0030654 -0.00446244 0
0.00101359 -0.00147156 0
2.64695e-05 -0.000655924 0
0.0292721 -0.0389471 0
0.012488 -0.0143618 0
0.00409443 -0.00480853 0
9.52605e-05 -0.00213131 0
0.0939798 -0.109548 0
0.0401828 -0.040418 0
0.0132186 -0.0135201 0
0.000264836 -0.00600631 0
0.253939 -0.254557 0
0.108523 -0.0939398 0
0.0356985 -0.0313691 0
0.000694916 -0.0139654 0
1.01315 -2.09962 0
0.776603 -1.20819 0
0.483596 -0.61297 0
0.250215 -0.251652 0
2.43928 -4.05226 0
1.88039 -2.33098 0
1.17847 -1.17789 0
0.612829 -0.48486 0
4.83249 -6.46976 0
3.72419 -3.72498 0
2.33058 -1.8803 0
1.20683 -0.777841 0
8.38475 -8.38338 0
6.47029 -4.83158 0
4.0537 -2.43878 0
2.09942 -1.01324 0
0.245654 -0.259531 0
0.103892 -0.0963058 0
0.0337697 -0.032523 0
0.000791248 -0.0147596 0
0.603917 -0.49725 0
0.258732 -0.183397 0
0.0853915 -0.0610498 0
0.00152409 -0.0271327 0
1.19135 -0.794508 0
0.50886 -0.293205 0
0.167427 -0.097632 0
0.00310636 -0.0435264 0
2.07536 -1.03223 0
0.888446 -0.381764 0
0.293152 -0.127634 0
0.00508146 -0.0573958 0
-3.40454e-05 -0.000656345 0
-0.00102823 -0.0014675 0
-0.00308766 -0.00445321 0
-0.00711515 -0.0120801 0
-8.32564e-05 -0.00214175 0
-0.00408789 -0.00480608 0
-0.0124753 -0.0143723 0
-0.0292391 -0.0389454 0
-0.000261086 -0.00603103 0
-0.0132309 -0.0135136 0
-0.0401971 -0.0404416 0
-0.0939805 -0.109542 0
-0.000666371 -0.0140112 0
-0.0356982 -0.0313491 0
-0.108512 -0.0939637 0
-0.253879 -0.254509 0
-0.00775329 -0.0123621 0
-0.0135032 -0.0284992 0
-0.0215347 -0.0571773 0
-0.0286883 -0.0985957 0
-0.0302561 -0.0370901 0
-0.0569193 -0.0925877 0
-0.091127 -0.181908 0
-0.119296 -0.317742 0
-0.0961849 -0.105125 0
-0.183261 -0.2601 0
-0.292838 -0.512128 0
-0.381358 -0.893158 0
-0.258621 -0.246404 0
-0.495974 -0.60348 0
-0.792593 -1.19145 0
-1.03051 -2.07422 0
-0.000528161 -0.0148049 0
-0.0334984 -0.0325798 0
-0.103512 -0.0965071 0
-0.245102 -0.259805 0
-0.00160564 -0.0272045 0
-0.0855501 -0.0609894 0
-0.258941 -0.183375 0
-0.60414 -0.497084 0
-0.00292266 -0.0436198 0
-0.167321 -0.0975531 0
-0.508704 -0.293172 0
-1.19106 -0.794283 0
-0.00521745 -0.0574934 0
-0.293464 -0.127656 0
-0.88886 -0.381965 0
-2.07581 -1.03241 0
-0.249841 -0.251702 0
-0.482864 -0.613573 0
-0.776032 -1.20869 0
-1.01304 -2.10066 0
-0.613344 -0.484394 0
-1.1786 -1.17793 0
-1.8806 -2.33063 0
-2.43962 -4.05248 0
-1.20699 -0.777303 0
-2.33012 -1.88032 0
-3.72389 -3.72458 0
-4.83275 -6.46994 0
-2.10045 -1.0132 0
-4.05412 -2.43939 0
-6.47075 -4.83211 0
-8.3855 -8.38451 0
8.41503 -8.25867 0
6.4979 -4.75397 0
4.07478 -2.39549 0
2.11309 -0.992054 0
12.1897 -8.16634 0
9.40193 -4.70726 0
5.8836 -2.37495 0
3.03974 -0.988032 0
15.4536 -5.15493 0
11.929 -2.97148 0
7.47147 -1.49973 0
3.86319 -0.62383 0
16.5214 0.093546 0
12.7437 0.0599454 0
7.97198 0.0319976 0
4.1147 0.0177756 0
2.08901 -1.01089 0
0.895957 -0.372117 0
0.296277 -0.123198 0
0.0050047 -0.0545004 0
3.00695 -1.00537 0
1.28425 -0.371887 0
0.422721 -0.124367 0
0.00752402 -0.0560066 0
3.82342 -0.635114 0
1.63583 -0.235137 0
0.539648 -0.0787821 0
0.0091889 -0.0355911 0
4.07242 0.0160045 0
1.73811 0.00716783 0
0.571844 0.0032433 0
0.0100243 0.00213632 0
16.5213 -0.097845 0
12.7434 -0.0585193 0
7.97178 -0.0336671 0
4.11454 -0.0140585 0
15.4531 5.15173 0
11.9294 2.97293 0
7.47137 1.49853 0
3.86368 0.627021 0
12.1887 8.16467 0
9.40218 4.70798 0
5.88318 2.37431 0
3.04036 0.989661 0
8.4144 8.25853 0
6.49849 4.75372 0
4.07465 2.39536 0
2.11404 0.991863 0
4.07226 -0.0161034 0
1.73799 -0.00721287 0
0.571763 -0.0032884 0
0.00995868 -0.00206128 0
3.82362 0.635147 0
1.63583 0.235165 0
0.539745 0.0787734 0
0.00905392 0.03565 0
3.00707 1.00537 0
1.28411 0.3719 0
0.422778 0.124361 0
0.00722744 0.0560367 0
2.0894 1.01078 0
0.895991 0.37207 0
0.296461 0.123179 0
0.00480936 0.0545002 0
-0.00535673 -0.0545984 0
-0.296836 -0.123011 0
-0.896695 -0.371838 0
-2.08987 -1.01021 0
-0.00717173 -0.0560796 0
-0.422506 -0.124383 0
-1.28393 -0.372025 0
-3.00638 -1.00545 0
-0.00926544 -0.0356142 0
-0.539944 -0.0788314 0
-1.63618 -0.235274 0
-3.82369 -0.635293 0
-0.00944016 0.00217267 0
-0.571371 0.00336239 0
-1.73741 0.00749631 0
-4.07133 0.0165155 0
-2.11452 -0.991154 0
-4.07561 -2.39479 0
-6.49861 -4.75272 0
-8.41567 -8.25776 0
-3.03984 -0.988116 0
-5.88292 -2.37523 0
-9.40145 -4.70754 0
-12.1902 -8.16671 0
-3.86412 -0.624265 0
-7.47177 -1.49993 0
-11.9293 -2.97199 0
-15.4542 -5.15509 0
-4.11415 0.0178338 0
-7.97085 0.0330564 0
-12.7428 0.0608243 0
-16.5217 0.0953471 0
-0.00951235 -0.00202506 0
-0.571451 -0.00339921 0
-1.73753 -0.00740909 0
-4.07149 -0.0165182 0
-0.00909538 0.0357317 0
-0.539964 0.0787711 0
-1.63607 0.235278 0
-3.82378 0.635175 0
-0.00698923 0.0561361 0
-0.422637 0.124356 0
-1.2839 0.372032 0
-3.00671 1.0054 0
-0.00506392 0.0545902 0
-0.296842 0.123041 0
-0.89648 0.371895 0
-2.08995 1.01031 0
-4.11432 -0.0149273 0
-7.97105 -0.0340047 0
-12.743 -0.0594671 0
-16.5219 -0.0980556 0
-3.86418 0.626556 0
-7.4716 1.49896 0
-11.9294 2.97285 0
-15.4532 5.1525 0
-3.04015 0.989307 0
-5.88291 2.37473 0
-9.40199 4.708 0
-12.1889 8.16542 0
-2.1146 0.991201 0
-4.07527 2.39495 0
-6.49882 4.75291 0
-8.41411 8.2581 0
-0.0262761 -0.098193 0
-0.0279103 -0.144677 0
-0.0177662 -0.182444 0
0.00181233 -0.196898 0
-0.115104 -0.320494 0
-0.116302 -0.459098 0
-0.0736816 -0.58504 0
0.0030879 -0.621373 0
-0.371665 -0.899768 0
-0.371373 -1.2925 0
-0.234776 -1.64504 0
0.00726855 -1.7501 0
-1.00865 -2.08648 0
-1.00361 -3.00743 0
-0.634149 -3.82207 0
0.016371 -4.07406 0
-0.00170004 -0.196927 0
0.0179205 -0.182554 0
0.0279115 -0.144906 0
0.0262338 -0.0983306 0
-0.00310674 -0.621373 0
0.0737184 -0.584992 0
0.11623 -0.459021 0
0.115057 -0.32045 0
-0.00721525 -1.75009 0
0.234912 -1.64507 0
0.371317 -1.29255 0
0.371623 -0.899897 0
-0.0165522 -4.07406 0
0.634155 -3.82193 0
1.00343 -3.00721 0
1.00863 -2.08634 0
-0.991367 -2.11292 0
-0.989467 -3.04308 0
-0.62708 -3.86491 0
0.0141128 -4.11922 0
-2.39506 -4.07191 0
-2.37449 -5.88438 0
-1.49869 -7.47048 0
0.034706 -7.97481 0
-4.75292 -6.49626 0
-4.70821 -9.40286 0
-2.97339 -11.9284 0
0.0599875 -12.7455 0
-8.25773 -8.4146 0
-8.16508 -12.1891 0
-5.15221 -15.4535 0
0.10028 -16.5218 0
-0.0184899 -4.11921 0
0.623604 -3.86434 0
0.987484 -3.04212 0
0.991414 -2.11192 0
-0.0329417 -7.97483 0
1.50037 -7.47063 0
2.37514 -5.88466 0
2.39504 -4.07225 0
-0.0618594 -12.7456 0
2.97206 -11.9283 0
4.70725 -9.40268 0
4.75296 -6.49598 0
-0.0957186 -16.5219 0
5.15613 -15.4538 0
8.16685 -12.1899 0
8.25766 -8.4149 0
0.0286932 -0.0987503 0
0.0214701 -0.0573637 0
0.013479 -0.0285715 0
0.00775699 -0.0124839 0
0.119285 -0.31768 0
0.0911042 -0.181864 0
0.0569605 -0.0925566 0
0.0303176 -0.0370524 0
0.381361 -0.893255 0
0.292785 -0.512201 0
0.183287 -0.260145 0
0.0962471 -0.105093 0
1.03054 -2.07402 0
0.792599 -1.19133 0
0.496122 -0.603381 0
0.258826 -0.246295 0
0.00705967 -0.0121429 0
0.00310425 -0.0044648 0
0.00113243 -0.00140074 0
0.000399287 -0.000313177 0
0.0292306 -0.0387962 0
0.0125806 -0.0143595 0
0.00445085 -0.0044579 0
0.00134528 -0.00109727 0
0.093907 -0.109232 0
0.0404558 -0.0404274 0
0.0143773 -0.0125702 0
0.00450217 -0.00304926 0
0.253815 -0.253838 0
0.109233 -0.0938581 0
0.0387554 -0.0292254 0
0.012123 -0.00707775 0
1.01313 -2.09959 0
0.777364 -1.20774 0
0.484769 -0.612796 0
0.251558 -0.251083 0
2.43965 -4.05272 0
1.88 -2.33098 0
1.17798 -1.17811 0
0.61298 -0.484529 0
4.83278 -6.46955 0
3.72442 -3.72457 0
2.33106 -1.8802 0
1.20815 -0.777393 0
8.38531 -8.3847 0
6.46928 -4.83248 0
4.05246 -2.4392 0
2.09967 -1.01315 0
0.246573 -0.258617 0
0.1051 -0.0960193 0
0.0364532 -0.030019 0
0.00992098 -0.00706118 0
0.603278 -0.496181 0
0.260138 -0.183301 0
0.0928289 -0.0570902 0
0.0297311 -0.013647 0
1.19142 -0.792815 0
0.51215 -0.292869 0
0.181518 -0.0913093 0
0.0563192 -0.0217103 0
2.07382 -1.03038 0
0.893212 -0.381165 0
0.318241 -0.119073 0
0.101182 -0.027869 0
-8.28763 -8.28754 0
-8.19028 -12.0137 0
-5.16545 -15.2379 0
0.103457 -16.293 0
-12.0135 -8.19397 0
-11.8787 -11.8771 0
-7.49969 -15.0546 0
0.133743 -16.1006 0
-15.2378 -5.1723 0
-15.0531 -7.49648 0
-9.49884 -9.50146 0
0.168975 -10.1615 0
-16.2928 0.0937563 0
-16.1044 0.135911 0
-10.1687 0.164684 0
0.171122 0.179776 0
-0.0930028 -16.2932 0
5.17424 -15.2382 0
8.19457 -12.0145 0
8.28745 -8.28831 0
-0.13794 -16.1008 0
7.49619 -15.0544 0
11.8767 -11.877 0
12.0137 -8.19342 0
-0.164491 -10.1618 0
9.50235 -9.50146 0
15.0549 -7.49675 0
15.2379 -5.17197 0
-0.181371 0.179532 0
10.1599 0.165064 0
16.0998 0.136112 0
16.2933 0.0941416 0
-16.293 -0.10015 0
-16.1044 -0.133016 0
-10.1687 -0.166897 0
0.17138 -0.172713 0
-15.2384 5.16666 0
-15.0529 7.49847 0
-9.4985 9.4992 0
0.167525 10.167 0
-12.0146 8.19111 0
-11.8784 11.8782 0
-7.49905 15.0535 0
0.131748 16.1034 0
-8.28846 8.28798 0
-8.1899 12.014 0
-5.16497 15.2383 0
0.101056 16.293 0
-0.181187 -0.172901 0
10.1602 -0.167276 0
16.1001 -0.133737 0
16.2935 -0.100293 0
-0.163049 10.1669 0
9.50178 9.49942 0
15.0547 7.49869 0
15.2386 5.16702 0
-0.135423 16.1035 0
7.49557 15.0533 0
11.8766 11.8779 0
12.015 8.19068 0
-0.090845 16.2932 0
5.17306 15.2384 0
8.19409 12.0146 0
8.28848 8.28852 0
8.41537 -8.25839 0
6.49527 -4.75395 0
4.07149 -2.39562 0
2.11163 -0.992176 0
12.19 -8.16605 0
9.40283 -4.70742 0
5.88504 -2.37472 0
3.04256 -0.988072 0
15.4538 -5.15469 0
11.928 -2.97201 0
7.47039 -1.49949 0
3.86408 -0.624277 0
16.5215 0.0957549 0
12.7463 0.0604728 0
7.97569 0.0327009 0
4.11941 0.0169295 0
2.08574 -1.00926 0
0.89988 -0.372018 0
0.321884 -0.115813 0
0.104564 -0.0277755 0
3.00757 -1.00345 0
1.29252 -0.371148 0
0.458245 -0.115997 0
0.142288 -0.0272268 0
3.82184 -0.6339 0
1.64513 -0.234601 0
0.585717 -0.0733644 0
0.185396 -0.0171614 0
4.07481 0.0159734 0
1.75005 0.0068137 0
0.619833 0.00244063 0
0.191053 5.58417e-05 0
16.5217 -0.0982047 0
12.7464 -0.059562 0
7.97571 -0.0335673 0
4.1194 -0.0147038 0
15.4527 5.1528 0
11.9283 2.97296 0
7.47027 1.49897 0
3.86406 0.626259 0
12.1885 8.16488 0
9.40342 4.70767 0
5.88488 2.37424 0
3.04253 0.98892 0
8.41349 8.25851 0
6.49579 4.75392 0
4.07134 2.39563 0
2.11167 0.992083 0
4.0748 -0.0159015 0
1.75004 -0.00689651 0
0.619813 -0.00242235 0
0.191015 -0.000131222 0
3.82197 0.634105 0
1.64506 0.234623 0
0.585754 0.0734211 0
0.185263 0.0171001 0
3.00778 1.00339 0
1.29239 0.371058 0
0.458291 0.115977 0
0.14204 0.0271941 0
2.08603 1.00923 0
0.899845 0.371997 0
0.32202 0.115795 0
0.104431 0.0277759 0
-0.0985953 0.0286909 0
-0.317741 0.119299 0
-0.893157 0.38136 0
-2.07422 1.03052 0
-0.0571769 0.0215374 0
-0.181907 0.0911296 0
-0.512128 0.29284 0
-1.19145 0.792595 0
-0.0284989 0.0135059 0
-0.0925874 0.0569219 0
-0.260099 0.183263 0
-0.60348 0.495976 0
-0.0123619 0.00775602 0
-0.0370898 0.0302588 0
-0.105125 0.0961875 0
-0.246404 0.258624 0
-2.10065 1.01305 0
-4.05248 2.43962 0
-6.46994 4.83276 0
-8.38451 8.3855 0
-1.20869 0.776034 0
-2.33063 1.88061 0
-3.72457 3.7239 0
-4.83211 6.47075 0
-0.613572 0.482866 0
-1.17793 1.17861 0
-1.88032 2.33012 0
-2.43939 4.05412 0
-0.251701 0.249844 0
-0.484393 0.613346 0
-0.777302 1.20699 0
-1.01319 2.10046 0
-0.01208 0.00711788 0
-0.0389451 0.0292418 0
-0.109542 0.0939831 0
-0.254509 0.253881 0
-0.00445311 0.0030904 0
-0.0143721 0.012478 0
-0.0404413 0.0401997 0
-0.0939633 0.108514 0
-0.00146746 0.00103096 0
-0.0048059 0.00409059 0
-0.0135133 0.0132336 0
-0.0313487 0.0357008 0
-0.000656345 3.67774e-05 0
-0.00214161 8.59604e-05 0
-0.00603076 0.000263765 0
-0.0140108 0.00066903 0
-0.259804 0.245105 0
-0.497083 0.604143 0
-0.794282 1.19106 0
-1.03241 2.07581 0
-0.0965066 0.103515 0
-0.183375 0.258944 0
-0.293172 0.508707 0
-0.381964 0.888863 0
-0.0325794 0.033501 0
-0.060989 0.0855527 0
-0.0975525 0.167323 0
-0.127655 0.293467 0
-0.0148045 0.00053082 0
-0.0272041 0.00160828 0
-0.0436193 0.00292529 0
-0.0574929 0.00522008 0
-8.25775 8.41567 0
-8.16671 12.1902 0
-5.15509 15.4542 0
0.0953478 16.5217 0
-4.75272 6.49862 0
-4.70754 9.40145 0
-2.97199 11.9293 0
0.0608251 12.7428 0
-2.39479 4.07561 0
-2.37523 5.88293 0
-1.49993 7.47177 0
0.0330571 7.97085 0
-0.991154 2.11452 0
-0.988116 3.03985 0
-0.624264 3.86412 0
0.0178346 4.11415 0
-0.0980548 16.5219 0
5.1525 15.4532 0
8.16542 12.1889 0
8.25809 8.41411 0
-0.0594662 12.743 0
2.97285 11.9294 0
4.708 9.40199 0
4.75291 6.49882 0
-0.034004 7.97106 0
1.49896 7.4716 0
2.37473 5.88291 0
2.39494 4.07527 0
-0.0149265 4.11432 0
0.626557 3.86418 0
0.989308 3.04015 0
0.991204 2.1146 0
-1.01021 2.08987 0
-1.00545 3.00638 0
-0.635292 3.82369 0
0.0165162 4.07133 0
-0.371838 0.896698 0
-0.372025 1.28393 0
-0.235273 1.63618 0
0.00749696 1.73741 0
-0.123011 0.296838 0
-0.124382 0.422509 0
-0.0788308 0.539946 0
0.00336306 0.571373 0
-0.0545978 0.00535935 0
-0.0560789 0.00717435 0
-0.0356135 0.00926806 0
0.00217334 0.00944279 0
-0.0165175 4.0715 0
0.635176 3.82378 0
1.0054 3.00671 0
1.01031 2.08995 0
-0.00740843 1.73753 0
0.235279 1.63607 0
0.372033 1.2839 0
0.371895 0.896482 0
-0.00339854 0.571454 0
0.0787718 0.539967 0
0.124356 0.42264 0
0.123041 0.296845 0
-0.0020244 0.00951499 0
0.0357323 0.00909802 0
0.0561367 0.00699193 0
0.0545906 0.00506666 0
-0.000655924 -2.37374e-05 0
-0.00213116 -9.25564e-05 0
-0.00600604 -0.000262156 0
-0.0139651 -0.000692256 0
-0.00147158 -0.00101087 0
-0.0048084 -0.00409172 0
-0.0135199 -0.0132159 0
-0.0313688 -0.0356958 0
-0.00446246 -0.00306269 0
-0.0143616 -0.0124853 0
-0.0404178 -0.0401801 0
-0.0939394 -0.10852 0
-0.0121002 -0.00708342 0
-0.038947 -0.0292694 0
-0.109547 -0.0939771 0
-0.254557 -0.253937 0
-0.0147592 -0.000788588 0
-0.0271322 -0.00152144 0
-0.0435258 -0.00310373 0
-0.0573953 -0.00507884 0
-0.0325226 -0.033767 0
-0.0610493 -0.0853888 0
-0.0976315 -0.167424 0
-0.127634 -0.293149 0
-0.0963055 -0.10389 0
-0.183397 -0.25873 0
-0.293204 -0.508857 0
-0.381763 -0.888444 0
-0.259531 -0.245651 0
-0.497249 -0.603915 0
-0.794507 -1.19135 0
-1.03223 -2.07536 0
-0.0123321 -0.00767993 0
-0.037147 -0.0302364 0
-0.105269 -0.0960905 0
-0.246679 -0.258506 0
-0.0285561 -0.0134863 0
-0.0925511 -0.0569965 0
-0.260009 -0.183309 0
-0.603381 -0.496154 0
-0.0572014 -0.0214532 0
-0.181935 -0.091165 0
-0.512199 -0.292813 0
-1.19165 -0.792705 0
-0.0987348 -0.0285372 0
-0.317658 -0.11927 0
-0.892971 -0.381225 0
-2.07404 -1.03047 0
-0.251652 -0.250213 0
-0.48486 -0.612826 0
-0.77784 -1.20683 0
-1.01323 -2.09942 0
-0.612969 -0.483593 0
-1.17789 -1.17847 0
-1.8803 -2.33058 0
-2.43878 -4.0537 0
-1.20819 -0.7766 0
-2.33098 -1.88039 0