# vtk DataFile Version 3.0
#This file was generated by the deal.II library on 2020/8/22 at 21:53:53
ASCII
DATASET UNSTRUCTURED_GRID

POINTS 16384 double
-1 -1 0
-0.96875 -1 0
-1 -0.96875 0
-0.96875 -0.96875 0
-0.96875 -1 0
-0.9375 -1 0
-0.96875 -0.96875 0
-0.9375 -0.96875 0
-1 -0.96875 0
-0.96875 -0.96875 0
-1 -0.9375 0
-0.96875 -0.9375 0
-0.96875 -0.96875 0
-0.9375 -0.96875 0
-0.96875 -0.9375 0
-0.9375 -0.9375 0
-0.9375 -1 0
-0.90625 -1 0
-0.9375 -0.96875 0
-0.90625 -0.96875 0
-0.90625 -1 0
-0.875 -1 0
-0.90625 -0.96875 0
-0.875 -0.96875 0
-0.9375 -0.96875 0
-0.90625 -0.96875 0
-0.9375 -0.9375 0
-0.90625 -0.9375 0
-0.90625 -0.96875 0
-0.875 -0.96875 0
-0.90625 -0.9375 0
-0.875 -0.9375 0
-1 -0.9375 0
-0.96875 -0.9375 0
-1 -0.90625 0
-0.96875 -0.90625 0
-0.96875 -0.9375 0
-0.9375 -0.9375 0
-0.96875 -0.90625 0
-0.9375 -0.90625 0
-1 -0.90625 0
-0.96875 -0.90625 0
-1 -0.875 0
-0.96875 -0.875 0
-0.96875 -0.90625 0
-0.9375 -0.90625 0
-0.96875 -0.875 0
-0.9375 -0.875 0
-0.9375 -0.9375 0
-0.90625 -0.9375 0
-0.9375 -0.90625 0
-0.90625 -0.90625 0
-0.90625 -0.9375 0
-0.875 -0.9375 0
-0.90625 -0.90625 0
-0.875 -0.90625 0
-0.9375 -0.90625 0
-0.90625 -0.90625 0
-0.9375 -0.875 0
-0.90625 -0.875 0
-0.90625 -0.90625 0
-0.875 -0.90625 0
-0.90625 -0.875 0
-0.875 -0.875 0
-0.875 -1 0
-0.84375 -1 0
-0.875 -0.96875 0
-0.84375 -0.96875 0
-0.84375 -1 0
-0.8125 -1 0
-0.84375 -0.96875 0
-0.8125 -0.96875 0
-0.875 -0.96875 0
-0.84375 -0.96875 0
-0.875 -0.9375 0
-0.84375 -0.9375 0
-0.84375 -0.96875 0
-0.8125 -0.96875 0
-0.84375 -0.9375 0
-0.8125 -0.9375 0
-0.8125 -1 0
-0.78125 -1 0
-0.8125 -0.96875 0
-0.78125 -0.96875 0
-0.78125 -1 0
-0.75 -1 0
-0.78125 -0.96875 0
-0.75 -0.96875 0
-0.8125 -0.96875 0
-0.78125 -0.96875 0
-0.8125 -0.9375 0
-0.78125 -0.9375 0
-0.78125 -0.96875 0
-0.75 -0.96875 0
-0.78125 -0.9375 0
-0.75 -0.9375 0
-0.875 -0.9375 0
-0.84375 -0.9375 0
-0.875 -0.90625 0
-0.84375 -0.90625 0
-0.84375 -0.9375 0
-0.8125 -0.9375 0
-0.84375 -0.90625 0
-0.8125 -0.90625 0
-0.875 -0.90625 0
-0.84375 -0.90625 0
-0.875 -0.875 0
-0.84375 -0.875 0
-0.84375 -0.90625 0
-0.8125 -0.90625 0
-0.84375 -0.875 0
-0.8125 -0.875 0
-0.8125 -0.9375 0
-0.78125 -0.9375 0
-0.8125 -0.90625 0
-0.78125 -0.90625 0
-0.78125 -0.9375 0
-0.75 -0.9375 0
-0.78125 -0.90625 0
-0.75 -0.90625 0
-0.8125 -0.90625 0
-0.78125 -0.90625 0
-0.8125 -0.875 0
-0.78125 -0.875 0
-0.78125 -0.90625 0
-0.75 -0.90625 0
-0.78125 -0.875 0
-0.75 -0.875 0
-1 -0.875 0
-0.96875 -0.875 0
-1 -0.84375 0
-0.96875 -0.84375 0
-0.96875 -0.875 0
-0.9375 -0.875 0
-0.96875 -0.84375 0
-0.9375 -0.84375 0
-1 -0.84375 0
-0.96875 -0.84375 0
-1 -0.8125 0
-0.96875 -0.8125 0
-0.96875 -0.84375 0
-0.9375 -0.84375 0
-0.96875 -0.8125 0
-0.9375 -0.8125 0
-0.9375 -0.875 0
-0.90625 -0.875 0
-0.9375 -0.84375 0
-0.90625 -0.84375 0
-0.90625 -0.875 0
-0.875 -0.875 0
-0.90625 -0.84375 0
-0.875 -0.84375 0
-0.9375 -0.84375 0
-0.90625 -0.84375 0
-0.9375 -0.8125 0
-0.90625 -0.8125 0
-0.90625 -0.84375 0
-0.875 -0.84375 0
-0.90625 -0.8125 0
-0.875 -0.8125 0
-1 -0.8125 0
-0.96875 -0.8125 0
-1 -0.78125 0
-0.96875 -0.78125 0
-0.96875 -0.8125 0
-0.9375 -0.8125 0
-0.96875 -0.78125 0
-0.9375 -0.78125 0
-1 -0.78125 0
-0.96875 -0.78125 0
-1 -0.75 0
-0.96875 -0.75 0
-0.96875 -0.78125 0
-0.9375 -0.78125 0
-0.96875 -0.75 0
-0.9375 -0.75 0
-0.9375 -0.8125 0
-0.90625 -0.8125 0
-0.9375 -0.78125 0
-0.90625 -0.78125 0
-0.90625 -0.8125 0
-0.875 -0.8125 0
-0.90625 -0.78125 0
-0.875 -0.78125 0
-0.9375 -0.78125 0
-0.90625 -0.78125 0
-0.9375 -0.75 0
-0.90625 -0.75 0
-0.90625 -0.78125 0
-0.875 -0.78125 0
-0.90625 -0.75 0
-0.875 -0.75 0
-0.875 -0.875 0
-0.84375 -0.875 0
-0.875 -0.84375 0
-0.84375 -0.84375 0
-0.84375 -0.875 0
-0.8125 -0.875 0
-0.84375 -0.84375 0
-0.8125 -0.84375 0
-0.875 -0.84375 0
-0.84375 -0.84375 0
-0.875 -0.8125 0
-0.84375 -0.8125 0
-0.84375 -0.84375 0
-0.8125 -0.84375 0
-0.84375 -0.8125 0
-0.8125 -0.8125 0
-0.8125 -0.875 0
-0.78125 -0.875 0
-0.8125 -0.84375 0
-0.78125 -0.84375 0
-0.78125 -0.875 0
-0.75 -0.875 0
-0.78125 -0.84375 0
-0.75 -0.84375 0
-0.8125 -0.84375 0
-0.78125 -0.84375 0
-0.8125 -0.8125 0
-0.78125 -0.8125 0
-0.78125 -0.84375 0
-0.75 -0.84375 0
-0.78125 -0.8125 0
-0.75 -0.8125 0
-0.875 -0.8125 0
-0.84375 -0.8125 0
-0.875 -0.78125 0
-0.84375 -0.78125 0
-0.84375 -0.8125 0
-0.8125 -0.8125 0
-0.84375 -0.78125 0
-0.8125 -0.78125 0
-0.875 -0.78125 0
-0.84375 -0.78125 0
-0.875 -0.75 0
-0.84375 -0.75 0
-0.84375 -0.78125 0
-0.8125 -0.78125 0
-0.84375 -0.75 0
-0.8125 -0.75 0
-0.8125 -0.8125 0
-0.78125 -0.8125 0
-0.8125 -0.78125 0
-0.78125 -0.78125 0
-0.78125 -0.8125 0
-0.75 -0.8125 0
-0.78125 -0.78125 0
-0.75 -0.78125 0
-0.8125 -0.78125 0
-0.78125 -0.78125 0
-0.8125 -0.75 0
-0.78125 -0.75 0
-0.78125 -0.78125 0
-0.75 -0.78125 0
-0.78125 -0.75 0
-0.75 -0.75 0
-0.75 -1 0
-0.71875 -1 0
-0.75 -0.96875 0
-0.71875 -0.96875 0
-0.71875 -1 0
-0.6875 -1 0
-0.71875 -0.96875 0
-0.6875 -0.96875 0
-0.75 -0.96875 0
-0.71875 -0.96875 0
-0.75 -0.9375 0
-0.71875 -0.9375 0
-0.71875 -0.96875 0
-0.6875 -0.96875 0
-0.71875 -0.9375 0
-0.6875 -0.9375 0
-0.6875 -1 0
-0.65625 -1 0
-0.6875 -0.96875 0
-0.65625 -0.96875 0
-0.65625 -1 0
-0.625 -1 0
-0.65625 -0.96875 0
-0.625 -0.96875 0
-0.6875 -0.96875 0
-0.65625 -0.96875 0
-0.6875 -0.9375 0
-0.65625 -0.9375 0
-0.65625 -0.96875 0
-0.625 -0.96875 0
-0.65625 -0.9375 0
-0.625 -0.9375 0
-0.75 -0.9375 0
-0.71875 -0.9375 0
-0.75 -0.90625 0
-0.71875 -0.90625 0
-0.71875 -0.9375 0
-0.6875 -0.9375 0
-0.71875 -0.90625 0
-0.6875 -0.90625 0
-0.75 -0.90625 0
-0.71875 -0.90625 0
-0.75 -0.875 0
-0.71875 -0.875 0
-0.71875 -0.90625 0
-0.6875 -0.90625 0
-0.71875 -0.875 0
-0.6875 -0.875 0
-0.6875 -0.9375 0
-0.65625 -0.9375 0
-0.6875 -0.90625 0
-0.65625 -0.90625 0
-0.65625 -0.9375 0
-0.625 -0.9375 0
-0.65625 -0.90625 0
-0.625 -0.90625 0
-0.6875 -0.90625 0
-0.65625 -0.90625 0
-0.6875 -0.875 0
-0.65625 -0.875 0
-0.65625 -0.90625 0
-0.625 -0.90625 0
-0.65625 -0.875 0
-0.625 -0.875 0
-0.625 -1 0
-0.59375 -1 0
-0.625 -0.96875 0
-0.59375 -0.96875 0
-0.59375 -1 0
-0.5625 -1 0
-0.59375 -0.96875 0
-0.5625 -0.96875 0
-0.625 -0.96875 0
-0.59375 -0.96875 0
-0.625 -0.9375 0
-0.59375 -0.9375 0
-0.59375 -0.96875 0
-0.5625 -0.96875 0
-0.59375 -0.9375 0
-0.5625 -0.9375 0
-0.5625 -1 0
-0.53125 -1 0
-0.5625 -0.96875 0
-0.53125 -0.96875 0
-0.53125 -1 0
-0.5 -1 0
-0.53125 -0.96875 0
-0.5 -0.96875 0
-0.5625 -0.96875 0
-0.53125 -0.96875 0
-0.5625 -0.9375 0
-0.53125 -0.9375 0
-0.53125 -0.96875 0
-0.5 -0.96875 0
-0.53125 -0.9375 0
-0.5 -0.9375 0
-0.625 -0.9375 0
-0.59375 -0.9375 0
-0.625 -0.90625 0
-0.59375 -0.90625 0
-0.59375 -0.9375 0
-0.5625 -0.9375 0
-0.59375 -0.90625 0
-0.5625 -0.90625 0
-0.625 -0.90625 0
-0.59375 -0.90625 0
-0.625 -0.875 0
-0.59375 -0.875 0
-0.59375 -0.90625 0
-0.5625 -0.90625 0
-0.59375 -0.875 0
-0.5625 -0.875 0
-0.5625 -0.9375 0
-0.53125 -0.9375 0
-0.5625 -0.90625 0
-0.53125 -0.90625 0
-0.53125 -0.9375 0
-0.5 -0.9375 0
-0.53125 -0.90625 0
-0.5 -0.90625 0
-0.5625 -0.90625 0
-0.53125 -0.90625 0
-0.5625 -0.875 0
-0.53125 -0.875 0
-0.53125 -0.90625 0
-0.5 -0.90625 0
-0.53125 -0.875 0
-0.5 -0.875 0
-0.75 -0.875 0
-0.71875 -0.875 0
-0.75 -0.84375 0
-0.71875 -0.84375 0
-0.71875 -0.875 0
-0.6875 -0.875 0
-0.71875 -0.84375 0
-0.6875 -0.84375 0
-0.75 -0.84375 0
-0.71875 -0.84375 0
-0.75 -0.8125 0
-0.71875 -0.8125 0
-0.71875 -0.84375 0
-0.6875 -0.84375 0
-0.71875 -0.8125 0
-0.6875 -0.8125 0
-0.6875 -0.875 0
-0.65625 -0.875 0
-0.6875 -0.84375 0
-0.65625 -0.84375 0
-0.65625 -0.875 0
-0.625 -0.875 0
-0.65625 -0.84375 0
-0.625 -0.84375 0
-0.6875 -0.84375 0
-0.65625 -0.84375 0
-0.6875 -0.8125 0
-0.65625 -0.8125 0
-0.65625 -0.84375 0
-0.625 -0.84375 0
-0.65625 -0.8125 0
-0.625 -0.8125 0
-0.75 -0.8125 0
-0.71875 -0.8125 0
-0.75 -0.78125 0
-0.71875 -0.78125 0
-0.71875 -0.8125 0
-0.6875 -0.8125 0
-0.71875 -0.78125 0
-0.6875 -0.78125 0
-0.75 -0.78125 0
-0.71875 -0.78125 0
-0.75 -0.75 0
-0.71875 -0.75 0
-0.71875 -0.78125 0
-0.6875 -0.78125 0
-0.71875 -0.75 0
-0.6875 -0.75 0
-0.6875 -0.8125 0
-0.65625 -0.8125 0
-0.6875 -0.78125 0
-0.65625 -0.78125 0
-0.65625 -0.8125 0
-0.625 -0.8125 0
-0.65625 -0.78125 0
-0.625 -0.78125 0
-0.6875 -0.78125 0
-0.65625 -0.78125 0
-0.6875 -0.75 0
-0.65625 -0.75 0
-0.65625 -0.78125 0
-0.625 -0.78125 0
-0.65625 -0.75 0
-0.625 -0.75 0
-0.625 -0.875 0
-0.59375 -0.875 0
-0.625 -0.84375 0
-0.59375 -0.84375 0
-0.59375 -0.875 0
-0.5625 -0.875 0
-0.59375 -0.84375 0
-0.5625 -0.84375 0
-0.625 -0.84375 0
-0.59375 -0.84375 0
-0.625 -0.8125 0
-0.59375 -0.8125 0
-0.59375 -0.84375 0
-0.5625 -0.84375 0
-0.59375 -0.8125 0
-0.5625 -0.8125 0
-0.5625 -0.875 0
-0.53125 -0.875 0
-0.5625 -0.84375 0
-0.53125 -0.84375 0
-0.53125 -0.875 0
-0.5 -0.875 0
-0.53125 -0.84375 0
-0.5 -0.84375 0
-0.5625 -0.84375 0
-0.53125 -0.84375 0
-0.5625 -0.8125 0
-0.53125 -0.8125 0
-0.53125 -0.84375 0
-0.5 -0.84375 0
-0.53125 -0.8125 0
-0.5 -0.8125 0
-0.625 -0.8125 0
-0.59375 -0.8125 0
-0.625 -0.78125 0
-0.59375 -0.78125 0
-0.59375 -0.8125 0
-0.5625 -0.8125 0
-0.59375 -0.78125 0
-0.5625 -0.78125 0
-0.625 -0.78125 0
-0.59375 -0.78125 0
-0.625 -0.75 0
-0.59375 -0.75 0
-0.59375 -0.78125 0
-0.5625 -0.78125 0
-0.59375 -0.75 0
-0.5625 -0.75 0
-0.5625 -0.8125 0
-0.53125 -0.8125 0
-0.5625 -0.78125 0
-0.53125 -0.78125 0
-0.53125 -0.8125 0
-0.5 -0.8125 0
-0.53125 -0.78125 0
-0.5 -0.78125 0
-0.5625 -0.78125 0
-0.53125 -0.78125 0
-0.5625 -0.75 0
-0.53125 -0.75 0
-0.53125 -0.78125 0
-0.5 -0.78125 0
-0.53125 -0.75 0
-0.5 -0.75 0
-1 -0.75 0
-0.96875 -0.75 0
-1 -0.71875 0
-0.96875 -0.71875 0
-0.96875 -0.75 0
-0.9375 -0.75 0
-0.96875 -0.71875 0
-0.9375 -0.71875 0
-1 -0.71875 0
-0.96875 -0.71875 0
-1 -0.6875 0
-0.96875 -0.6875 0
-0.96875 -0.71875 0
-0.9375 -0.71875 0
-0.96875 -0.6875 0
-0.9375 -0.6875 0
-0.9375 -0.75 0
-0.90625 -0.75 0
-0.9375 -0.71875 0
-0.90625 -0.71875 0
-0.90625 -0.75 0
-0.875 -0.75 0
-0.90625 -0.71875 0
-0.875 -0.71875 0
-0.9375 -0.71875 0
-0.90625 -0.71875 0
-0.9375 -0.6875 0
-0.90625 -0.6875 0
-0.90625 -0.71875 0
-0.875 -0.71875 0
-0.90625 -0.6875 0
-0.875 -0.6875 0
-1 -0.6875 0
-0.96875 -0.6875 0
-1 -0.65625 0
-0.96875 -0.65625 0
-0.96875 -0.6875 0
[...]
POINT_DATA 16384
VECTORS gradient double
-0.000270441 -0.000348319 0
-0.000810717 -0.000725089 0
-0.000682854 -0.000830393 0
-0.00125849 -0.00128438 0
-0.000800061 -0.000740586 0
-0.00161969 -0.00147428 0
-0.00124947 -0.00170941 0
-0.00239624 -0.00270528 0
-0.000656981 -0.000816654 0
-0.00168947 -0.00127189 0
-0.00144602 -0.00159204 0
-0.00267908 -0.0023957 0
-0.00168423 -0.00170148 0
-0.00331307 -0.00269552 0
-0.00267322 -0.0032839 0
-0.00507753 -0.00508453 0
-0.00161355 -0.0014925 0
-0.00291742 -0.00285922 0
-0.00239495 -0.00336153 0
-0.00435697 -0.00539078 0
-0.0029259 -0.00288259 0
-0.00493167 -0.00529378 0
-0.00437943 -0.00632315 0
-0.00749053 -0.0101799 0
-0.00332252 -0.00335585 0
-0.00596346 -0.00538363 0
-0.00509285 -0.00645757 0
-0.00920369 -0.0101776 0
-0.00600585 -0.00632108 0
-0.0101091 -0.0101807 0
-0.00927128 -0.012129 0
-0.0157945 -0.0192728 0
-0.00140362 -0.00158218 0
-0.00334448 -0.00239076 0
-0.00285006 -0.00284735 0
-0.00536641 -0.00433137 0
-0.00334201 -0.00329002 0
-0.00649218 -0.00509585 0
-0.00536451 -0.00589042 0
-0.0101636 -0.00919131 0
-0.0027904 -0.00285198 0
-0.00631083 -0.00435033 0
-0.00530758 -0.00482276 0
-0.0101592 -0.00744434 0
-0.00631313 -0.00592936 0
-0.0121707 -0.00925513 0
-0.0101674 -0.00999546 0
-0.0192528 -0.0157667 0
-0.00652092 -0.00648212 0
-0.0116816 -0.0102163 0
-0.0102078 -0.0116005 0
-0.0183873 -0.0183882 0
-0.0117763 -0.0121856 0
-0.0198328 -0.0193648 0
-0.0185371 -0.0218117 0
-0.0315059 -0.034802 0
-0.0122332 -0.0116908 0
-0.0219026 -0.0185328 0
-0.0193526 -0.0197071 0
-0.0347887 -0.0314963 0
-0.02209 -0.021993 0
-0.037235 -0.0350949 0
-0.0350889 -0.0370949 0
-0.059539 -0.0595462 0
-0.00497132 -0.00532216 0
-0.00788436 -0.00934274 0
-0.00756111 -0.0113841 0
-0.0121656 -0.0182351 0
-0.00797679 -0.00937357 0
-0.0119263 -0.0157026 0
-0.0123152 -0.0196163 0
-0.0186489 -0.0310011 0
-0.0102124 -0.0113914 0
-0.016208 -0.0182558 0
-0.0159601 -0.0217928 0
-0.0256165 -0.0345869 0
-0.0164069 -0.0196447 0
-0.0245703 -0.0310623 0
-0.0259363 -0.0374771 0
-0.0392159 -0.058878 0
-0.0120933 -0.0157309 0
-0.0170407 -0.0251228 0
-0.0189075 -0.0323404 0
-0.0269372 -0.0500389 0
-0.0172949 -0.0251421 0
-0.0229374 -0.0382551 0
-0.0273213 -0.050987 0
-0.0365757 -0.0767036 0
-0.0248971 -0.0324092 0
-0.0351562 -0.0501714 0
-0.0397425 -0.0616794 0
-0.0565707 -0.0951269 0
-0.0356264 -0.0511253 0
-0.0473592 -0.0769484 0
-0.057329 -0.0971082 0
-0.0767146 -0.145922 0
-0.0200456 -0.0219079 0
-0.0318497 -0.0347769 0
-0.0318475 -0.0392228 0
-0.0510322 -0.0624255 0
-0.0322438 -0.0376938 0
-0.0483447 -0.0592345 0
-0.0516701 -0.0674952 0
-0.0780334 -0.106224 0
-0.0376426 -0.0395629 0
-0.0598755 -0.062976 0
-0.0601965 -0.0667753 0
-0.0963401 -0.106722 0
-0.0606181 -0.0681 0
-0.0909852 -0.107194 0
-0.0975427 -0.115012 0
-0.147178 -0.181482 0
-0.0489779 -0.0620622 0
-0.0692391 -0.0957456 0
-0.0790635 -0.111138 0
-0.112446 -0.171563 0
-0.0701364 -0.0977462 0
-0.0933327 -0.146922 0
-0.11391 -0.175038 0
-0.152338 -0.2631 0
-0.0921664 -0.11216 0
-0.130421 -0.173171 0
-0.149095 -0.189516 0
-0.211907 -0.292961 0
-0.132083 -0.176683 0
-0.175917 -0.265613 0
-0.21461 -0.298642 0
-0.286873 -0.449086 0
-0.00523236 -0.00485931 0
-0.0113772 -0.0075124 0
-0.00938079 -0.00774269 0
-0.0182201 -0.0121057 0
-0.0113907 -0.010096 0
-0.0218397 -0.0159298 0
-0.018251 -0.0160596 0
-0.0345633 -0.0255799 0
-0.00929685 -0.00783401 0
-0.0196145 -0.012255 0
-0.0157618 -0.0117631 0
-0.0309943 -0.0185848 0
-0.0196517 -0.0162574 0
-0.037523 -0.0258998 0
-0.031069 -0.0243983 0
-0.0588555 -0.0391791 0
-0.0219631 -0.0199165 0
-0.0393196 -0.0318346 0
-0.0347643 -0.0316841 0
-0.0624029 -0.0510176 0
-0.0396682 -0.037498 0
-0.0669241 -0.0601991 0
-0.062964 -0.0596894 0
-0.106703 -0.0963447 0
-0.0377512 -0.0320773 0
-0.0675871 -0.0516562 0
-0.0592273 -0.0481505 0
-0.1062 -0.0780213 0
-0.0682035 -0.0604313 0
-0.115154 -0.0975487 0
-0.107184 -0.0907644 0
-0.181463 -0.147186 0
-0.0156828 -0.0119323 0
-0.0323421 -0.0188466 0
-0.0251947 -0.0168738 0
-0.0500431 -0.0268809 0
-0.0324232 -0.0247271 0
-0.0617144 -0.03971 0
-0.050193 -0.0349792 0
-0.0951138 -0.0565443 0
-0.0251405 -0.0171346 0
-0.0509904 -0.0272725 0
-0.0383258 -0.022791 0
-0.0767215 -0.0365404 0
-0.0511451 -0.0354553 0
-0.0971209 -0.0573118 0
-0.0769877 -0.047203 0
-0.145929 -0.0767093 0
-0.0621127 -0.048787 0
-0.111208 -0.0790582 0
-0.0957525 -0.0690365 0
-0.171551 -0.112445 0
-0.112246 -0.0919512 0
-0.189628 -0.149114 0
-0.173178 -0.130187 0
-0.292962 -0.211925 0
-0.0977788 -0.0699423 0
-0.175067 -0.113924 0
-0.146954 -0.0931512 0
-0.263116 -0.152358 0
-0.176732 -0.131863 0
-0.298696 -0.214649 0
-0.265654 -0.175706 0
-0.449131 -0.286908 0
-0.0676663 -0.0675114 0
-0.107741 -0.107908 0
-0.107896 -0.107541 0
-0.172515 -0.172531 0
-0.109078 -0.116294 0
-0.163877 -0.18352 0
-0.174663 -0.18537 0
-0.263356 -0.293202 0
-0.116444 -0.108878 0
-0.185563 -0.174681 0
-0.18351 -0.163638 0
-0.293193 -0.263372 0
-0.187864 -0.187672 0
-0.28247 -0.296846 0
-0.296832 -0.282236 0
-0.447313 -0.447314 0
-0.165988 -0.191646 0
-0.235084 -0.296273 0
-0.266748 -0.305644 0
-0.378932 -0.473069 0
-0.23804 -0.30202 0
-0.317278 -0.454186 0
-0.38368 -0.481865 0
-0.512687 -0.724889 0
-0.286083 -0.309434 0
-0.405463 -0.478926 0
-0.453015 -0.465594 0
-0.643279 -0.721385 0
-0.4105 -0.487826 0
-0.547497 -0.733829 0
-0.651216 -0.734308 0
-0.869936 -1.10498 0
-0.191768 -0.165758 0
-0.3058 -0.26678 0
-0.296285 -0.23483 0
-0.473091 -0.378954 0
-0.309588 -0.285863 0
-0.465786 -0.453039 0
-0.478943 -0.405214 0
-0.721432 -0.643277 0
-0.302086 -0.237807 0
-0.481949 -0.383734 0
-0.454245 -0.317048 0
-0.724975 -0.512721 0
-0.487905 -0.410283 0
-0.734415 -0.65126 0
-0.733908 -0.547274 0
-1.10512 -0.869937 0
-0.4717 -0.47153 0
-0.668924 -0.730526 0
-0.730541 -0.668721 0
-1.03705 -1.03698 0
-0.677138 -0.743597 0
-0.903589 -1.11886 0
-1.04967 -1.05497 0
-1.40192 -1.58788 0
-0.743673 -0.676981 0
-1.05508 -1.04966 0
-1.11895 -0.903414 0
-1.58805 -1.40185 0
-1.06789 -1.06784 0
-1.42558 -1.60705 0
-1.60715 -1.42551 0
-2.14615 -2.14596 0
-0.0232715 -0.0382585 0
-0.0289799 -0.0554376 0
-0.0370716 -0.076826 0
-0.0465272 -0.111686 0
-0.0293566 -0.0554207 0
-0.0341924 -0.0764556 0
-0.0470782 -0.110568 0
-0.0551781 -0.154505 0
-0.0479529 -0.0770726 0
-0.0598548 -0.112091 0
-0.0776725 -0.146173 0
-0.097471 -0.212579 0
-0.0605027 -0.110969 0
-0.0706189 -0.155118 0
-0.098516 -0.210233 0
-0.11547 -0.294177 0
-0.0345423 -0.0764182 0
-0.0373861 -0.100348 0
-0.0556819 -0.151901 0
-0.0605469 -0.203111 0
-0.0376183 -0.100296 0
-0.0374088 -0.125347 0
-0.0608715 -0.199093 0
-0.0607029 -0.25378 0
-0.0712006 -0.152502 0
-0.0771936 -0.20397 0
-0.116408 -0.288718 0
-0.12659 -0.386791 0
-0.0775564 -0.199933 0
-0.0772036 -0.2549 0
-0.127172 -0.378368 0
-0.126823 -0.4833 0
-0.0944529 -0.147178 0
-0.118006 -0.214096 0
-0.15417 -0.263539 0
-0.193389 -0.383202 0
-0.119217 -0.21173 0
-0.139259 -0.296337 0
-0.195372 -0.379084 0
-0.228932 -0.53021 0
-0.177981 -0.26606 0
-0.222527 -0.386916 0
-0.290232 -0.449805 0
-0.363942 -0.653888 0
-0.224747 -0.382758 0
-0.262688 -0.5354 0
-0.367557 -0.647155 0
-0.430595 -0.904536 0
-0.140335 -0.290831 0
-0.152236 -0.389691 0
-0.230694 -0.520633 0
-0.250825 -0.697061 0
-0.152892 -0.381195 0
-0.152246 -0.486972 0
-0.251902 -0.682287 0
-0.251174 -0.870939 0
-0.26465 -0.525726 0
-0.28722 -0.703929 0
-0.43379 -0.88888 0
-0.471566 -1.18901 0
-0.288405 -0.689005 0
-0.287256 -0.879549 0
-0.473494 -1.16486 0
-0.472067 -1.4855 0
-0.037434 -0.125289 0
-0.0334669 -0.149016 0
-0.06072 -0.248817 0
-0.0543113 -0.301439 0
-0.0332276 -0.148964 0
-0.0254236 -0.168606 0
-0.0539402 -0.296361 0
-0.041139 -0.340451 0
-0.077201 -0.249914 0
-0.069022 -0.302806 0
-0.126814 -0.472898 0
-0.113414 -0.574017 0
-0.0685633 -0.297704 0
-0.0523821 -0.342015 0
-0.112668 -0.563371 0
-0.0858953 -0.648188 0
-0.0249201 -0.16857 0
-0.0139588 -0.181571 0
-0.040383 -0.336266 0
-0.0223242 -0.365698 0
-0.0132592 -0.181554 0
-0.000507863 -0.186105 0
-0.0212844 -0.363323 0
-0.000270527 -0.373695 0
-0.0514735 -0.337811 0
-0.0287011 -0.367378 0
-0.0844238 -0.639414 0
-0.0466474 -0.696074 0
-0.027461 -0.364993 0
-0.00094846 -0.37539 0
-0.0446433 -0.691094 0
-0.000668933 -0.711066 0
-0.152215 -0.476479 0
-0.136084 -0.578409 0
-0.251122 -0.852696 0
-0.224556 -1.03441 0
-0.135199 -0.567672 0
-0.10323 -0.653155 0
-0.223105 -1.01574 0
-0.170072 -1.1681 0
-0.287174 -0.861119 0
-0.256736 -1.04464 0
-0.471929 -1.45568 0
-0.421961 -1.7643 0
-0.255089 -1.02578 0
-0.194685 -1.17963 0
-0.419271 -1.73379 0
-0.319586 -1.99243 0
-0.101508 -0.644306 0
-0.056492 -0.701388 0
-0.167249 -1.15272 0
-0.0924309 -1.25448 0
-0.0541538 -0.696366 0
-0.00173789 -0.716445 0
-0.0886013 -1.24575 0
-0.00149862 -1.28161 0
-0.191504 -1.16409 0
-0.106418 -1.2668 0
-0.314398 -1.96729 0
-0.173785 -2.13996 0
-0.10211 -1.25798 0
-0.0030329 -1.2941 0
-0.166768 -2.1257 0
-0.00305705 -2.18653 0
-0.320935 -0.454915 0
-0.401519 -0.661332 0
-0.518559 -0.726001 0
-0.650093 -1.05515 0
-0.40544 -0.654527 0
-0.474133 -0.914843 0
-0.656385 -1.04472 0
-0.768826 -1.45928 0
-0.553707 -0.734956 0
-0.693119 -1.06811 0
-0.87971 -1.10662 0
-1.10264 -1.60796 0
-0.699757 -1.05756 0
-0.818681 -1.47713 0
-1.11308 -1.59265 0
-1.30359 -2.22339 0
-0.477583 -0.899014 0
-0.51851 -1.20255 0
-0.774359 -1.43504 0
-0.841689 -1.91795 0
-0.520577 -1.17814 0
-0.518613 -1.50239 0
-0.844996 -1.88056 0
-0.842369 -2.39602 0
-0.824503 -1.45261 0
-0.89545 -1.9413 0
-1.31272 -2.18777 0
-1.42674 -2.92183 0
-0.898914 -1.90348 0
-0.89568 -2.42505 0
-1.43215 -2.8669 0
-1.42759 -3.64985 0
-0.913687 -1.12051 0
-1.14425 -1.62798 0
-1.41741 -1.59014 0
-1.77636 -2.31008 0
-1.15501 -1.61249 0
-1.3518 -2.25085 0
-1.79284 -2.28876 0
-2.0995 -3.19365 0
-1.4413 -1.60934 0
-1.80562 -2.33766 0
-2.16951 -2.14893 0
-2.71866 -3.1213 0
-1.82233 -2.31611 0
-2.13342 -3.23139 0
-2.74347 -3.09324 0
-3.21252 -4.31443 0
-1.36121 -2.21484 0
-1.47873 -2.95766 0
-2.11389 -3.14407 0
-2.29733 -4.19635 0
-1.4843 -2.90212 0
-1.47916 -3.69431 0
-2.30579 -4.11991 0
-2.29832 -5.24158 0
-2.148 -3.18129 0
-2.33392 -4.24549 0
-3.2341 -4.24921 0
-3.5146 -5.66839 0
-2.34248 -4.16824 0
-2.33462 -5.30246 0
-3.52722 -5.56782 0
-3.51563 -7.0798 0
-0.518436 -1.47224 0
-0.463478 -1.7843 0
-0.842067 -2.34986 0
-0.752844 -2.84568 0
-0.460537 -1.75345 0
-0.351348 -2.01492 0
-0.7481 -2.79845 0
-0.570193 -3.21376 0
-0.895334 -2.37836 0
-0.800403 -2.87998 0
-1.42701 -3.58205 0
-1.27571 -4.33472 0
-0.795373 -2.83222 0
-0.606586 -3.25229 0
-1.26776 -4.26536 0
-0.966199 -4.89555 0
-0.3457 -1.98951 0
-0.191844 -2.16399 0
-0.561108 -3.17485 0
-0.310188 -3.45202 0
-0.184214 -2.14958 0
-0.00505515 -2.21093 0
-0.297926 -3.42995 0
-0.00577296 -3.52756 0
-0.596979 -3.21295 0
-0.330892 -3.49319 0
-0.951052 -4.83841 0
-0.525774 -5.25885 0
-0.317934 -3.47087 0
-0.00808517 -3.5694 0
-0.505368 -5.22645 0
-0.0101851 -5.37448 0
-1.47853 -3.62574 0
-1.32172 -4.38719 0
-2.29728 -5.14722 0
-2.05358 -6.22498 0
-1.31349 -4.31705 0
-1.00142 -4.95445 0
-2.0409 -6.12846 0
-1.55532 -7.03049 0
-2.33355 -5.2071 0
-2.08598 -6.29676 0
-3.51392 -6.95567 0
-3.14099 -8.40786 0
-2.07311 -6.19922 0
-1.58014 -7.11103 0
-3.12176 -8.28091 0
-2.37884 -9.49593 0
-0.985773 -4.89668 0
-0.545826 -5.32177 0
-1.53129 -6.951 0
-0.846533 -7.55264 0
-0.524754 -5.28901 0
-0.0124516 -5.43845 0
-0.814204 -7.50758 0
-0.0168708 -7.71933 0
-1.55576 -7.0307 0
-0.860683 -7.63867 0
-2.34254 -9.39139 0
-1.29494 -10.2016 0
-0.827891 -7.59313 0
-0.0185057 -7.80682 0
-1.24618 -10.1423 0
-0.0263111 -10.4274 0
-0.0383195 -0.0231361 0
-0.0768294 -0.0370479 0
-0.0554911 -0.0288817 0
-0.11172 -0.0465248 0
-0.0770969 -0.0478065 0
-0.146154 -0.077681 0
-0.112149 -0.0597495 0
-0.212617 -0.0974952 0
-0.0555524 -0.0292723 0
-0.110571 -0.0470898 0
-0.0764779 -0.0341686 0
-0.154555 -0.0552161 0
-0.110997 -0.0604099 0
-0.210179 -0.0985565 0
-0.155195 -0.0705942 0
-0.294254 -0.115527 0
-0.147183 -0.0942852 0
-0.263512 -0.15421 0
-0.214164 -0.117882 0
-0.383266 -0.193434 0
-0.266056 -0.177792 0
-0.44978 -0.290299 0
-0.387008 -0.222381 0
-0.654001 -0.363999 0
-0.211705 -0.11911 0
-0.378995 -0.195441 0
-0.296447 -0.139228 0
-0.530332 -0.229002 0
-0.382695 -0.224628 0
-0.647043 -0.36765 0
-0.535554 -0.262652 0
-0.904732 -0.43067 0
-0.076616 -0.0345326 0
-0.151906 -0.0557333 0
-0.100332 -0.0374553 0
-0.203175 -0.0606253 0
-0.152535 -0.0711886 0
-0.288636 -0.11648 0
-0.204061 -0.0772713 0
-0.386906 -0.126674 0
-0.100539 -0.0376983 0
-0.199103 -0.060959 0
-0.125297 -0.0375759 0
-0.253853 -0.0608128 0
-0.199972 -0.0776438 0
-0.378276 -0.127266 0
-0.254998 -0.0773914 0
-0.483444 -0.126923 0
-0.290781 -0.14032 0
-0.520493 -0.230786 0
-0.389839 -0.152325 0
-0.697242 -0.250911 0
-0.525615 -0.264639 0
-0.888694 -0.433897 0
-0.704141 -0.287326 0
-1.18929 -0.471645 0
-0.381134 -0.152994 0
-0.682125 -0.252001 0
-0.487146 -0.152468 0
-0.871162 -0.251258 0
-0.68887 -0.288529 0
-1.16464 -0.473592 0
-0.879798 -0.28752 0
-1.48582 -0.472129 0
-0.454903 -0.320737 0
-0.725983 -0.518639 0
-0.661461 -0.401363 0
-1.05533 -0.650143 0
-0.734929 -0.553532 0
-1.1066 -0.879778 0
-1.06828 -0.692975 0
-1.60822 -1.10266 0
-0.654427 -0.405321 0
-1.04459 -0.656488 0
-0.915056 -0.4741 0
-1.45958 -0.768888 0
-1.05742 -0.699669 0
-1.5925 -1.11317 0
-1.47741 -0.818668 0
-2.22378 -1.30361 0
-1.12045 -0.913579 0
-1.59012 -1.41743 0
-1.62819 -1.14415 0
-2.3104 -1.77629 0
-1.60924 -1.44131 0
-2.14888 -2.16944 0
-2.33789 -1.80561 0
-3.12165 -2.71848 0
-1.61229 -1.15499 0
-2.28859 -1.79288 0
-2.25118 -1.35183 0
-3.19412 -2.09945 0
-2.31584 -1.82243 0
-3.09304 -2.74341 0
-3.23175 -2.13351 0
-4.31493 -3.21237 0
-0.898841 -0.477587 0
-1.43482 -0.774467 0
-1.20284 -0.51864 0
-1.91834 -0.841748 0
-1.45237 -0.824542 0
-2.18751 -1.31281 0
-1.94167 -0.895608 0
-2.92233 -1.42676 0
-1.17793 -0.520731 0
-1.88029 -0.845081 0
-1.50272 -0.51892 0
-2.39647 -0.8424 0
-1.90319 -0.899104 0
-2.86658 -1.43221 0
-2.42547 -0.89602 0
-3.65041 -1.42759 0
-2.21451 -1.36131 0
-3.14378 -2.11393 0
-2.9581 -1.47892 0
-4.19695 -2.29729 0
-3.18088 -2.14818 0
-4.24889 -3.23407 0
-4.24597 -2.33413 0
-5.66901 -3.5145 0
-2.90172 -1.48452 0
-4.11955 -2.3058 0
-3.6948 -1.47951 0
-5.24222 -2.29828 0
-4.16776 -2.34275 0
-5.56745 -3.52718 0
-5.30297 -2.33494 0
-7.08044 -3.51558 0
-0.125545 -0.0376054 0
-0.248837 -0.0608315 0
-0.148948 -0.0337197 0
-0.301514 -0.0544356 0
-0.249962 -0.0773927 0
-0.472819 -0.126914 0
-0.302901 -0.0693087 0
-0.57417 -0.113508 0
-0.149193 -0.0334766 0
-0.296395 -0.0540573 0
-0.168541 -0.0257337 0
-0.340519 -0.0412557 0
-0.297762 -0.0688465 0
-0.563332 -0.112751 0
-0.342096 -0.0527376 0
-0.648326 -0.0859617 0
-0.47643 -0.15244 0
-0.852552 -0.251205 0
-0.578586 -0.136426 0
-1.03464 -0.224614 0
-0.860998 -0.287442 0
-1.45548 -0.471987 0
-1.04489 -0.257143 0
-1.76463 -0.421976 0
-0.567655 -0.135535 0
-1.01565 -0.223146 0
-0.653307 -0.103657 0
-1.1683 -0.17008 0
-1.02571 -0.255484 0
-1.73367 -0.419258 0
-1.17984 -0.195193 0
-1.99269 -0.319528 0
-0.168738 -0.0252189 0
-0.336317 -0.040485 0
-0.181531 -0.0142865 0
-0.365754 -0.0224122 0
-0.337878 -0.0518188 0
-0.639431 -0.0844711 0
-0.367437 -0.0290816 0
-0.696175 -0.0466681 0
-0.181641 -0.0135707 0
-0.363389 -0.0213536 0
-0.186103 -0.000810263 0
-0.373732 -0.000314464 0
-0.365064 -0.027827 0
-0.691169 -0.0446407 0
-0.37542 -0.00130476 0
-0.711114 -0.000635119 0
-0.644336 -0.101919 0
-1.15272 -0.167227 0
-0.70149 -0.0569516 0
-1.25461 -0.092373 0
-1.1641 -0.191986 0
-1.96728 -0.314294 0
-1.26692 -0.106962 0
-2.14011 -0.173641 0
-0.696443 -0.0545923 0
-1.24584 -0.0885079 0
-0.71648 -0.00217005 0
-1.28165 -0.00137228 0
-1.25806 -0.102621 0
-2.1258 -0.166569 0
-1.29412 -0.00354063 0
-2.18654 -0.0028289 0
-1.47204 -0.518747 0
-2.34961 -0.842091 0
-1.78463 -0.463944 0
-2.8461 -0.752814 0
-2.37808 -0.895674 0
-3.58175 -1.42699 0
-2.88038 -0.800898 0
-4.33524 -1.27565 0
-1.75333 -0.460981 0
-2.79829 -0.748028 0
-2.01518 -0.35192 0
-3.21408 -0.570074 0
-2.83202 -0.795832 0
-4.26516 -1.26763 0
-3.25259 -0.607175 0
-4.89591 -0.966042 0
-3.62537 -1.47887 0
-5.14689 -2.29723 0
-4.38763 -1.32219 0
-6.22555 -2.05351 0
-5.20664 -2.33385 0
-6.95533 -3.51385 0
-6.2972 -2.08636 0
-8.4084 -3.14096 0
-4.31678 -1.31391 0
-6.12824 -2.04074 0
-4.95474 -1.00194 0
-7.03086 -1.55518 0
-6.19888 -2.0734 0
-8.28069 -3.12162 0
-7.1113 -1.58049 0
-9.49623 -2.37878 0
-1.98948 -0.346231 0
-3.17482 -0.560919 0
-2.16412 -0.192448 0
-3.45217 -0.309965 0
-3.21289 -0.597504 0
-4.83837 -0.950796 0
-3.4933 -0.331492 0
-5.25898 -0.525507 0
-2.14966 -0.184765 0
-3.43006 -0.297622 0
-2.21091 -0.00560626 0
-3.5275 -0.00545308 0
-3.47095 -0.318455 0
-5.22657 -0.504987 0
-3.5693 -0.00860787 0
-5.37432 -0.00981548 0
-4.89657 -0.986203 0
-6.95095 -1.53101 0
-5.32184 -0.546321 0
-7.5527 -0.846291 0
-7.03055 -1.55598 0
-9.39133 -2.34231 0
-7.63866 -0.860948 0
-10.2015 -1.29482 0
-5.28907 -0.525137 0
-7.50769 -0.813808 0
-5.43824 -0.0128361 0
-7.71905 -0.0165308 0
-7.59317 -0.828003 0
-10.1424 -1.24586 0
-7.8065 -0.0186213 0
-10.427 -0.0261092 0
-2.17227 -2.17243 0
-2.72205 -3.15498 0
-3.1552 -2.72216 0
-3.9536 -3.95327 0
-2.74688 -3.12665 0
-3.21646 -4.36043 0
-3.98914 -3.91848 0
-4.671 -5.46364 0
-3.12631 -2.74711 0
-3.91825 -3.98896 0
-4.36078 -3.21663 0
-5.46411 -4.67074 0
-3.95351 -3.95388 0
-4.63005 -5.51229 0
-5.51259 -4.63029 0
-6.45478 -6.45442 0
-3.23806 -4.29458 0
-3.51886 -5.72819 0
-4.70185 -5.3828 0
-5.1095 -7.17752 0
-3.53149 -5.62667 0
-3.51989 -7.15379 0
-5.12744 -7.05289 0
-5.11045 -8.96414 0
-4.66066 -5.4308 0
-5.06536 -7.24068 0
-6.49678 -6.36047 0
-7.05998 -8.47835 0
-5.08317 -7.11506 0
-5.06669 -9.04222 0
-7.08431 -8.33353 0
-7.06068 -10.5882 0
-4.29411 -3.23834 0
-5.38248 -4.70172 0
-5.72865 -3.51909 0
-7.17809 -5.10935 0
-5.43031 -4.66102 0
-6.36019 -6.49656 0
-7.24106 -5.06557 0
-8.47875 -7.0598 0
-5.62612 -3.53177 0
-7.05254 -5.12736 0
-7.15428 -3.52013 0
-8.9647 -5.11041 0
-7.11453 -5.08344 0
-8.33326 -7.0842 0
-9.0426 -5.06681 0
-10.5885 -7.06071 0
-6.40165 -6.40206 0
-6.95798 -8.53297 0
-8.53323 -6.95815 0
-9.27302 -9.27285 0
-6.98201 -8.38732 0
-6.95954 -10.6556 0
-9.30447 -9.1162 0
-9.27335 -11.5798 0
-8.38691 -6.98224 0
-9.1161 -9.30437 0
-10.6558 -6.95952 0
-11.5799 -9.27347 0
-9.1471 -9.14725 0
-9.11771 -11.6186 0
-11.6186 -9.11755 0
-11.5797 -11.58 0
-3.51817 -7.02849 0
-3.14481 -8.49503 0
-5.10783 -8.81033 0
-4.56551 -10.6454 0
-3.12555 -8.36689 0
-2.38179 -9.59371 0
-4.53778 -10.4881 0
-3.4576 -12.023 0
-5.0641 -8.8872 0
-4.52649 -10.7373 0
-7.05692 -10.4095 0
-6.30739 -12.5736 0
-4.49899 -10.5788 0
-3.42777 -12.1261 0
-6.26937 -12.3909 0
-4.77662 -14.2007 0
-2.34546 -9.48818 0
-1.29666 -10.306 0
-3.40544 -11.8935 0
-1.88232 -12.9168 0
-1.24785 -10.2462 0
-0.0265717 -10.5337 0
-1.81233 -12.8435 0
-0.0387043 -13.2034 0
-3.37603 -11.9956 0
-1.86538 -13.0269 0
-4.70529 -14.0503 0
-2.60045 -15.2567 0
-1.79595 -12.953 0
-0.0368646 -13.3154 0
-2.50481 -15.1715 0
-0.05377 -15.5957 0
-6.95585 -10.4759 0
-6.21716 -12.653 0
-9.26828 -11.3865 0
-8.28356 -13.7507 0
-6.17967 -12.4692 0
-4.70757 -14.2897 0
-8.23398 -13.5531 0
-6.27293 -15.53 0
-9.11276 -11.4247 0
-8.14468 -13.7963 0
-11.5733 -11.3877 0
-10.3433 -13.7505 0
-8.09591 -13.5982 0
-6.16662 -15.5811 0
-10.2818 -13.5539 0
-7.8324 -15.5294 0
-4.6372 -14.1384 0
-2.56116 -15.3517 0
-6.1801 -15.3674 0
-3.41497 -16.6849 0
-2.46682 -15.266 0
-0.0493763 -15.6924 0
-3.29059 -16.5928 0
-0.0706158 -17.0559 0
-6.07526 -15.4179 0
-3.35443 -16.7394 0
-7.71742 -15.3676 0
-4.26365 -16.6841 0
-3.23202 -16.647 0
-0.0637478 -17.1114 0
-4.10965 -16.5925 0
-0.0877403 -17.0551 0
-7.02799 -3.51839 0
-8.81003 -5.10776 0
-8.49543 -3.14501 0
-10.6458 -4.56557 0
-8.88672 -5.06419 0
-10.4093 -7.0569 0
-10.7376 -4.52646 0
-12.5738 -6.3076 0
-8.36652 -3.12564 0
-10.4879 -4.53771 0
-9.59389 -2.38187 0
-12.0232 -3.45771 0
-10.5784 -4.49882 0
-12.3908 -6.26942 0
-12.1262 -3.42751 0
-14.2007 -4.77696 0
-10.4756 -6.95578 0
-11.3865 -9.26834 0
-12.6531 -6.21687 0
-13.7507 -8.28395 0
-11.4247 -9.11252 0
-11.3879 -11.5735 0
-13.7963 -8.14419 0
-13.7502 -10.3439 0
-12.469 -6.17921 0