# vtk DataFile Version 3.0
#This file was generated by the deal.II library on 2020/8/22 at 21:53:33
ASCII
DATASET UNSTRUCTURED_GRID

POINTS 112 double
-1 -1 0
-0.5 -1 0
-1 -0.5 0
-0.5 -0.5 0
-0.5 -1 0
0 -1 0
-0.5 -0.5 0
0 -0.5 0
0 -1 0
0.5 -1 0
0 -0.5 0
0.5 -0.5 0
0.5 -1 0
1 -1 0
0.5 -0.5 0
1 -0.5 0
0 -0.5 0
0.5 -0.5 0
0 0 0
0.5 0 0
0.5 -0.5 0
1 -0.5 0
0.5 0 0
1 0 0
-1 0.5 0
-0.5 0.5 0
-1 1 0
-0.5 1 0
-0.5 0.5 0
0 0.5 0
-0.5 1 0
0 1 0
0 0 0
0.5 0 0
0 0.5 0
0.5 0.5 0
0.5 0 0
1 0 0
0.5 0.5 0
1 0.5 0
0 0.5 0
0.5 0.5 0
0 1 0
0.5 1 0
0.5 0.5 0
1 0.5 0
0.5 1 0
1 1 0
-1 -0.5 0
-0.75 -0.5 0
-1 -0.25 0
-0.75 -0.25 0
-0.75 -0.5 0
-0.5 -0.5 0
-0.75 -0.25 0
-0.5 -0.25 0
-1 -0.25 0
-0.75 -0.25 0
-1 0 0
-0.75 0 0
-0.75 -0.25 0
-0.5 -0.25 0
-0.75 0 0
-0.5 0 0
-0.5 -0.5 0
-0.25 -0.5 0
-0.5 -0.25 0
-0.25 -0.25 0
-0.25 -0.5 0
0 -0.5 0
-0.25 -0.25 0
0 -0.25 0
-0.5 -0.25 0
-0.25 -0.25 0
-0.5 0 0
-0.25 0 0
-0.25 -0.25 0
0 -0.25 0
-0.25 0 0
0 0 0
-1 0 0
-0.75 0 0
-1 0.25 0
-0.75 0.25 0
-0.75 0 0
-0.5 0 0
-0.75 0.25 0
-0.5 0.25 0
-1 0.25 0
-0.75 0.25 0
-1 0.5 0
-0.75 0.5 0
-0.75 0.25 0
-0.5 0.25 0
-0.75 0.5 0
-0.5 0.5 0
-0.5 0 0
-0.25 0 0
-0.5 0.25 0
-0.25 0.25 0
-0.25 0 0
0 0 0
-0.25 0.25 0
0 0.25 0
-0.5 0.25 0
-0.25 0.25 0
-0.5 0.5 0
-0.25 0.5 0
-0.25 0.25 0
0 0.25 0
-0.25 0.5 0
0 0.5 0

CELLS 28 140
4	0	1	3	2
4	4	5	7	6
4	8	9	11	10
4	12	13	15	14
4	16	17	19	18
4	20	21	23	22
4	24	25	27	26
4	28	29	31	30
4	32	33	35	34
4	36	37	39	38
4	40	41	43	42
4	44	45	47	46
4	48	49	51	50
4	52	53	55	54
4	56	57	59	58
4	60	61	63	62
4	64	65	67	66
4	68	69	71	70
4	72	73	75	74
4	76	77	79	78
4	80	81	83	82
4	84	85	87	86
4	88	89	91	90
4	92	93	95	94
4	96	97	99	98
4	100	101	103	102
4	104	105	107	106
4	108	109	111	110

CELL_TYPES 28
 9 9 9 9 9 9 9 9 9 9 9 9 9 9 9 9 9 9 9 9 9 9 9 9 9 9 9 9
POINT_DATA 112
VECTORS gradient double
8.63089 -6.02833 0
2.31377 -11.6374 0
-2.50785 3.74791 0
-4.56086 -5.87669 0
0.143011 -11.7844 0
0.738544 1.26586 0
11.1149 -5.5496 0
11.6584 3.00603 0
3.5121 0.986589 0
7.56422 -4.96573 0
-3.49811 3.3092 0
-1.18791 -6.27247 0
8.86174 -5.00335 0
10.5333 1.71354 0
16.0544 -6.6358 0
20.5412 1.41549 0
-5.71652 2.27941 0
-1.08911 9.73998 0
5.62534 2.80005 0
6.36258 12.8666 0
16.2122 10.0401 0
20.8996 -1.68873 0
4.50779 13.1284 0
5.20814 -1.97097 0
-9.88901 5.52588 0
-6.89344 13.2997 0
1.1916 8.43751 0
1.62333 21.609 0
9.16001 13.336 0
12.0555 3.89507 0
-1.098 21.1948 0
-1.41282 5.88432 0
3.66037 4.33607 0
4.83155 4.91242 0
2.92167 4.40731 0
3.22759 3.16252 0
6.07119 4.85406 0
7.15904 -0.304866 0
3.13884 3.17679 0
3.26116 0.0151607 0
4.85884 5.32114 0
3.02643 3.26938 0
-0.0971436 7.44116 0
0.0190253 3.03595 0
3.03013 3.26139 0
3.26865 0.0361643 0
-0.0160728 3.02863 0
-0.0520027 0.04627 0
3.20666 -2.03472 0
-11.378 12.9517 0
2.35582 7.10999 0
3.51268 8.75472 0
-16.1914 17.399 0
-3.12665 3.76405 0
3.23726 6.28349 0
2.85346 26.5886 0
2.47016 6.91579 0
2.42951 6.76849 0
0.142655 7.47485 0
1.22686 5.54139 0
1.02253 5.18902 0
1.79082 15.3649 0
1.14026 5.4296 0
2.18718 4.16512 0
10.0307 3.74522 0
23.6835 16.9256 0
3.54686 26.6402 0
2.96501 4.99755 0
18.7311 12.4565 0
2.50969 -5.04999 0
2.72951 7.47386 0
2.65761 5.41313 0
4.58208 15.4392 0
5.12648 4.02817 0
2.85743 4.13495 0
3.685 4.10019 0
3.58125 5.5851 0
3.50679 4.77263 0
3.50709 4.15917 0
3.54763 4.39167 0
0.148593 7.37903 0
1.25249 6.20222 0
-1.16748 7.12909 0
-0.0849873 4.79856 0
1.15763 6.22497 0
2.18674 5.80123 0
-1.33257 6.29435 0
0.400467 -5.9589 0
-1.26771 6.51999 0
0.975908 2.80358 0
-3.39778 13.1967 0
-15.3912 -2.80609 0
0.892978 5.2161 0
1.60177 -17.4556 0
-20.8512 -7.02204 0
-5.84508 4.06884 0
2.85422 5.78175 0
3.69004 4.86098 0
3.35919 -5.9819 0
4.67044 4.86755 0
3.52023 4.82242 0
3.49864 4.42248 0
3.24978 3.30596 0
3.59111 4.12418 0
2.43092 -17.4371 0
2.42923 3.82065 0
8.38762 4.88394 0
22.6546 -8.31076 0
2.26452 1.28907 0
2.85867 3.58874 0
17.3915 -3.80219 0
4.42211 11.7106 0
SCALARS solution double 1
LOOKUP_TABLE default
10.2384 7.64399 10.4067 15.0122 7.62232 7.87957 15.1465 6.56264 7.8592 4.94127 6.70086 10.6337 4.92821 0.0560365 10.7707 -1.2321 6.43762 10.8182 5.62847 2.28409 10.9523 -1.26799 2.25762 0.225907 3.40745 10.3464 0.322215 -0.911013 10.2212 2.416 -0.917829 0.190792 5.4024 3.4333 3.17054 1.59227 3.42535 -0.027138 1.5876 0.0225976 3.39066 1.57735 -0.0234171 -0.0204695 1.57262 0.0219553 -0.0195084 -0.000504586 10.6481 11.8008 9.49904 8.78862 11.3958 15.6413 8.65829 8.07027 9.60249 8.91923 7.7537 7.54191 8.72174 8.86956 7.51793 7.18901 15.6756 9.58657 8.06295 7.08204 9.98553 7.16251 7.22156 6.4573 8.87288 7.14385 7.19574 6.26833 7.34025 6.55112 6.30572 5.42591 7.76348 7.5456 5.94665 5.99435 7.52156 7.19123 5.81873 6.42245 5.86057 5.88381 3.86008 6.1061 5.78001 5.62505 5.70829 11.0685 7.19771 6.27094 6.43002 4.9064 6.30891 5.42862 5.0992 4.33799 5.61585 4.84025 11.0262 5.17654 4.96969 4.26332 5.58757 2.87338 
SCALARS u_post double 1
LOOKUP_TABLE default
10.7244 8.30139 10.9727 12.7056 8.3367 8.25451 12.6899 7.17048 8.2303 5.60151 7.20256 8.48582 5.58317 0.536049 8.54723 -0.495977 7.00131 8.53308 5.94567 2.93736 8.58405 -0.54138 2.89489 0.547461 3.94985 8.04229 0.463789 -0.511603 8.01434 2.85019 -0.442835 0.452744 5.4175 3.46239 3.15706 1.57834 3.45725 -0.0128026 1.57621 4.54078e-06 3.35076 1.55531 -0.00162148 0.00547332 1.57416 0.00098447 0.00122835 -0.000140074 10.579 11.9131 9.59037 9.00745 11.6393 12.8792 9.49801 8.73301 9.56265 9.0265 7.699 7.51353 9.05969 9.16906 7.46511 6.98538 12.8745 9.85043 8.73783 7.94279 10.1134 7.07407 7.45775 6.63225 9.17598 7.50617 6.98303 6.22646 7.47743 6.5562 6.27448 5.39158 7.69483 7.51304 5.90837 6.11164 7.4615 6.98631 6.14688 6.73129 5.90477 6.11636 3.72555 6.32566 6.60822 6.26054 6.03542 8.23598 6.98252 6.224 6.73543 5.26353 6.27344 5.39356 5.23245 4.33756 6.28904 5.71343 8.17669 5.46076 5.22002 4.38529 5.73458 2.74342 
