# vtk DataFile Version 3.0
#This file was generated by the deal.II library on 2020/8/22 at 21:53:39
ASCII
DATASET UNSTRUCTURED_GRID

POINTS 22256 double
0.5 0.5 0
0.5 1 0
1 0.5 0
1 1 0
0.5 0.5 0
1 0.5 0
0.5 1 0
1 1 0
0 0 0
0 0.25 0
0.25 0 0
0.25 0.25 0
0 0 0
0.25 0 0
0 0.25 0
0.25 0.25 0
0.25 0.25 0
0.25 0.5 0
0.5 0.25 0
0.5 0.5 0
0.25 0.25 0
0.5 0.25 0
0.25 0.5 0
0.5 0.5 0
0.75 0 0
0.75 0.25 0
1 0 0
1 0.25 0
0.75 0 0
1 0 0
0.75 0.25 0
1 0.25 0
0.5 0.25 0
0.5 0.5 0
0.75 0.25 0
0.75 0.5 0
0.5 0.25 0
0.75 0.25 0
0.5 0.5 0
0.75 0.5 0
0.75 0.25 0
0.75 0.5 0
1 0.25 0
1 0.5 0
0.75 0.25 0
1 0.25 0
0.75 0.5 0
1 0.5 0
0.25 0.5 0
0.25 0.75 0
0.5 0.5 0
0.5 0.75 0
0.25 0.5 0
0.5 0.5 0
0.25 0.75 0
0.5 0.75 0
0 0.75 0
0 1 0
0.25 0.75 0
0.25 1 0
0 0.75 0
0.25 0.75 0
0 1 0
0.25 1 0
0.25 0.75 0
0.25 1 0
0.5 0.75 0
0.5 1 0
0.25 0.75 0
0.5 0.75 0
0.25 1 0
0.5 1 0
-1 -0.25 0
-1 -0.125 0
-0.875 -0.25 0
-0.875 -0.125 0
-1 -0.25 0
-0.875 -0.25 0
-1 -0.125 0
-0.875 -0.125 0
-1 -0.125 0
-1 0 0
-0.875 -0.125 0
-0.875 0 0
-1 -0.125 0
-0.875 -0.125 0
-1 0 0
-0.875 0 0
-0.875 -0.125 0
-0.875 0 0
-0.75 -0.125 0
-0.75 0 0
-0.875 -0.125 0
-0.75 -0.125 0
-0.875 0 0
-0.75 0 0
-0.125 -0.25 0
-0.125 -0.125 0
0 -0.25 0
0 -0.125 0
-0.125 -0.25 0
0 -0.25 0
-0.125 -0.125 0
0 -0.125 0
-0.25 -0.125 0
-0.25 0 0
-0.125 -0.125 0
-0.125 0 0
-0.25 -0.125 0
-0.125 -0.125 0
-0.25 0 0
-0.125 0 0
-0.125 -0.125 0
-0.125 0 0
0 -0.125 0
0 0 0
-0.125 -0.125 0
0 -0.125 0
-0.125 0 0
0 0 0
-1 0 0
-1 0.125 0
-0.875 0 0
-0.875 0.125 0
-1 0 0
-0.875 0 0
-1 0.125 0
-0.875 0.125 0
-0.875 0 0
-0.875 0.125 0
-0.75 0 0
-0.75 0.125 0
-0.875 0 0
-0.75 0 0
-0.875 0.125 0
-0.75 0.125 0
-1 0.125 0
-1 0.25 0
-0.875 0.125 0
-0.875 0.25 0
-1 0.125 0
-0.875 0.125 0
-1 0.25 0
-0.875 0.25 0
-0.25 0 0
-0.25 0.125 0
-0.125 0 0
-0.125 0.125 0
-0.25 0 0
-0.125 0 0
-0.25 0.125 0
-0.125 0.125 0
-0.125 0 0
-0.125 0.125 0
0 0 0
0 0.125 0
-0.125 0 0
0 0 0
-0.125 0.125 0
0 0.125 0
-0.125 0.125 0
-0.125 0.25 0
0 0.125 0
0 0.25 0
-0.125 0.125 0
0 0.125 0
-0.125 0.25 0
0 0.25 0
-1 -1 0
-1 -0.875 0
-0.875 -1 0
-0.875 -0.875 0
-1 -1 0
-0.875 -1 0
-1 -0.875 0
-0.875 -0.875 0
-0.875 -1 0
-0.875 -0.875 0
-0.75 -1 0
-0.75 -0.875 0
-0.875 -1 0
-0.75 -1 0
-0.875 -0.875 0
-0.75 -0.875 0
-1 -0.875 0
-1 -0.75 0
-0.875 -0.875 0
-0.875 -0.75 0
-1 -0.875 0
-0.875 -0.875 0
-1 -0.75 0
-0.875 -0.75 0
-0.25 -1 0
-0.25 -0.875 0
-0.125 -1 0
-0.125 -0.875 0
-0.25 -1 0
-0.125 -1 0
-0.25 -0.875 0
-0.125 -0.875 0
-0.125 -1 0
-0.125 -0.875 0
0 -1 0
0 -0.875 0
-0.125 -1 0
0 -1 0
-0.125 -0.875 0
0 -0.875 0
-0.125 -0.875 0
-0.125 -0.75 0
0 -0.875 0
0 -0.75 0
-0.125 -0.875 0
0 -0.875 0
-0.125 -0.75 0
0 -0.75 0
0 -1 0
0 -0.875 0
0.125 -1 0
0.125 -0.875 0
0 -1 0
0.125 -1 0
0 -0.875 0
0.125 -0.875 0
0.125 -1 0
0.125 -0.875 0
0.25 -1 0
0.25 -0.875 0
0.125 -1 0
0.25 -1 0
0.125 -0.875 0
0.25 -0.875 0
0 -0.875 0
0 -0.75 0
0.125 -0.875 0
0.125 -0.75 0
0 -0.875 0
0.125 -0.875 0
0 -0.75 0
0.125 -0.75 0
0.75 -1 0
0.75 -0.875 0
0.875 -1 0
0.875 -0.875 0
0.75 -1 0
0.875 -1 0
0.75 -0.875 0
0.875 -0.875 0
0.875 -1 0
0.875 -0.875 0
1 -1 0
1 -0.875 0
0.875 -1 0
1 -1 0
0.875 -0.875 0
1 -0.875 0
0.875 -0.875 0
0.875 -0.75 0
1 -0.875 0
1 -0.75 0
0.875 -0.875 0
1 -0.875 0
0.875 -0.75 0
1 -0.75 0
0 -0.25 0
0 -0.125 0
0.125 -0.25 0
0.125 -0.125 0
0 -0.25 0
0.125 -0.25 0
0 -0.125 0
0.125 -0.125 0
0 -0.125 0
0 0 0
0.125 -0.125 0
0.125 0 0
0 -0.125 0
0.125 -0.125 0
0 0 0
0.125 0 0
0.125 -0.125 0
0.125 0 0
0.25 -0.125 0
0.25 0 0
0.125 -0.125 0
0.25 -0.125 0
0.125 0 0
0.25 0 0
0.875 -0.25 0
0.875 -0.125 0
1 -0.25 0
1 -0.125 0
0.875 -0.25 0
1 -0.25 0
0.875 -0.125 0
1 -0.125 0
0.75 -0.125 0
0.75 0 0
0.875 -0.125 0
0.875 0 0
0.75 -0.125 0
0.875 -0.125 0
0.75 0 0
0.875 0 0
0.875 -0.125 0
0.875 0 0
1 -0.125 0
1 0 0
0.875 -0.125 0
1 -0.125 0
0.875 0 0
1 0 0
-1 0.75 0
-1 0.875 0
-0.875 0.75 0
-0.875 0.875 0
-1 0.75 0
-0.875 0.75 0
-1 0.875 0
-0.875 0.875 0
-1 0.875 0
-1 1 0
-0.875 0.875 0
-0.875 1 0
-1 0.875 0
-0.875 0.875 0
-1 1 0
-0.875 1 0
-0.875 0.875 0
-0.875 1 0
-0.75 0.875 0
-0.75 1 0
-0.875 0.875 0
-0.75 0.875 0
-0.875 1 0
-0.75 1 0
-0.125 0.75 0
-0.125 0.875 0
0 0.75 0
0 0.875 0
-0.125 0.75 0
0 0.75 0
-0.125 0.875 0
0 0.875 0
-0.25 0.875 0
-0.25 1 0
-0.125 0.875 0
-0.125 1 0
-0.25 0.875 0
-0.125 0.875 0
-0.25 1 0
-0.125 1 0
-0.125 0.875 0
-0.125 1 0
0 0.875 0
0 1 0
-0.125 0.875 0
0 0.875 0
-0.125 1 0
0 1 0
0.25 0 0
0.25 0.125 0
0.375 0 0
0.375 0.125 0
0.25 0 0
0.375 0 0
0.25 0.125 0
0.375 0.125 0
0.375 0 0
0.375 0.125 0
0.5 0 0
0.5 0.125 0
0.375 0 0
0.5 0 0
0.375 0.125 0
0.5 0.125 0
0.25 0.125 0
0.25 0.25 0
0.375 0.125 0
0.375 0.25 0
0.25 0.125 0
0.375 0.125 0
0.25 0.25 0
0.375 0.25 0
0.375 0.125 0
0.375 0.25 0
0.5 0.125 0
0.5 0.25 0
0.375 0.125 0
0.5 0.125 0
0.375 0.25 0
0.5 0.25 0
0 0.25 0
0 0.375 0
0.125 0.25 0
0.125 0.375 0
0 0.25 0
0.125 0.25 0
0 0.375 0
0.125 0.375 0
0.125 0.25 0
0.125 0.375 0
0.25 0.25 0
0.25 0.375 0
0.125 0.25 0
0.25 0.25 0
0.125 0.375 0
0.25 0.375 0
0 0.375 0
0 0.5 0
0.125 0.375 0
0.125 0.5 0
0 0.375 0
0.125 0.375 0
0 0.5 0
0.125 0.5 0
0.125 0.375 0
0.125 0.5 0
0.25 0.375 0
0.25 0.5 0
0.125 0.375 0
0.25 0.375 0
0.125 0.5 0
0.25 0.5 0
0.5 0 0
0.5 0.125 0
0.625 0 0
0.625 0.125 0
0.5 0 0
0.625 0 0
0.5 0.125 0
0.625 0.125 0
0.625 0 0
0.625 0.125 0
0.75 0 0
0.75 0.125 0
0.625 0 0
0.75 0 0
0.625 0.125 0
0.75 0.125 0
0.5 0.125 0
0.5 0.25 0
0.625 0.125 0
0.625 0.25 0
0.5 0.125 0
0.625 0.125 0
0.5 0.25 0
0.625 0.25 0
0.625 0.125 0
0.625 0.25 0
0.75 0.125 0
0.75 0.25 0
0.625 0.125 0
0.75 0.125 0
0.625 0.25 0
0.75 0.25 0
0 0.5 0
0 0.625 0
0.125 0.5 0
0.125 0.625 0
0 0.5 0
0.125 0.5 0
0 0.625 0
0.125 0.625 0
0.125 0.5 0
0.125 0.625 0
0.25 0.5 0
0.25 0.625 0
0.125 0.5 0
0.25 0.5 0
0.125 0.625 0
0.25 0.625 0
0 0.625 0
0 0.75 0
0.125 0.625 0
0.125 0.75 0
0 0.625 0
0.125 0.625 0
0 0.75 0
0.125 0.75 0
0.125 0.625 0
0.125 0.75 0
0.25 0.625 0
0.25 0.75 0
0.125 0.625 0
0.25 0.625 0
0.125 0.75 0
0.25 0.75 0
-0.875 -0.3125 0
-0.875 -0.25 0
-0.8125 -0.3125 0
-0.8125 -0.25 0
-0.875 -0.3125 0
-0.8125 -0.3125 0
-0.875 -0.25 0
-0.8125 -0.25 0
-0.1875 -0.3125 0
-0.1875 -0.25 0
-0.125 -0.3125 0
-0.125 -0.25 0
-0.1875 -0.3125 0
-0.125 -0.3125 0
-0.1875 -0.25 0
-0.125 -0.25 0
-0.3125 0.125 0
-0.3125 0.1875 0
-0.25 0.125 0
-0.25 0.1875 0
-0.3125 0.125 0
-0.25 0.125 0
-0.3125 0.1875 0
-0.25 0.1875 0
-0.75 -0.1875 0
-0.75 -0.125 0
-0.6875 -0.1875 0
-0.6875 -0.125 0
-0.75 -0.1875 0
-0.6875 -0.1875 0
-0.75 -0.125 0
-0.6875 -0.125 0
-0.3125 -0.1875 0
-0.3125 -0.125 0
-0.25 -0.1875 0
-0.25 -0.125 0
-0.3125 -0.1875 0
-0.25 -0.1875 0
-0.3125 -0.125 0
-0.25 -0.125 0
-0.875 0.25 0
-0.875 0.3125 0
-0.8125 0.25 0
-0.8125 0.3125 0
-0.875 0.25 0
-0.8125 0.25 0
-0.875 0.3125 0
-0.8125 0.3125 0
-0.1875 0.25 0
-0.1875 0.3125 0
-0.125 0.25 0
-0.125 0.3125 0
-0.1875 0.25 0
-0.125 0.25 0
-0.1875 0.3125 0
-0.125 0.3125 0
-0.75 -0.875 0
-0.75 -0.8125 0
-0.6875 -0.875 0
-0.6875 -0.8125 0
-0.75 -0.875 0
-0.6875 -0.875 0
-0.75 -0.8125 0
-0.6875 -0.8125 0
-0.3125 -0.875 0
-0.3125 -0.8125 0
-0.25 -0.875 0
-0.25 -0.8125 0
-0.3125 -0.875 0
-0.25 -0.875 0
-0.3125 -0.8125 0
-0.25 -0.8125 0
0.25 -0.875 0
0.25 -0.8125 0
0.3125 -0.875 0
0.3125 -0.8125 0
0.25 -0.875 0
0.3125 -0.875 0
0.25 -0.8125 0
0.3125 -0.8125 0
0.125 -0.75 0
0.125 -0.6875 0
0.1875 -0.75 0
0.1875 -0.6875 0
0.125 -0.75 0
0.1875 -0.75 0
0.125 -0.6875 0
0.1875 -0.6875 0
0.8125 -0.75 0
0.8125 -0.6875 0
0.875 -0.75 0
0.875 -0.6875 0
0.8125 -0.75 0
0.875 -0.75 0
0.8125 -0.6875 0
0.875 -0.6875 0
0.125 -0.3125 0
0.125 -0.25 0
0.1875 -0.3125 0
0.1875 -0.25 0
0.125 -0.3125 0
0.1875 -0.3125 0
0.125 -0.25 0
0.1875 -0.25 0
0.25 -0.1875 0
0.25 -0.125 0
0.3125 -0.1875 0
0.3125 -0.125 0
0.25 -0.1875 0
0.3125 -0.1875 0
0.25 -0.125 0
0.3125 -0.125 0
0.8125 -0.3125 0
0.8125 -0.25 0
0.875 -0.3125 0
0.875 -0.25 0
0.8125 -0.3125 0
0.875 -0.3125 0
0.8125 -0.25 0
0.875 -0.25 0
0.6875 -0.1875 0
0.6875 -0.125 0
0.75 -0.1875 0
0.75 -0.125 0
0.6875 -0.1875 0
0.75 -0.1875 0
0.6875 -0.125 0
0.75 -0.125 0
-0.875 0.6875 0
-0.875 0.75 0
-0.8125 0.6875 0
-0.8125 0.75 0
-0.875 0.6875 0
-0.8125 0.6875 0
-0.875 0.75 0
-0.8125 0.75 0
-0.75 0.8125 0
-0.75 0.875 0
-0.6875 0.8125 0
-0.6875 0.875 0
-0.75 0.8125 0
-0.6875 0.8125 0
-0.75 0.875 0
-0.6875 0.875 0
-0.1875 0.6875 0
-0.1875 0.75 0
-0.125 0.6875 0
-0.125 0.75 0
-0.1875 0.6875 0
-0.125 0.6875 0
-0.1875 0.75 0
-0.125 0.75 0
-0.3125 0.8125 0
-0.3125 0.875 0
-0.25 0.8125 0
-0.25 0.875 0
-0.3125 0.8125 0
-0.25 0.8125 0
-0.3125 0.875 0
-0.25 0.875 0
-0.75 0.125 0
-0.75 0.1875 0
-0.6875 0.125 0
-0.6875 0.1875 0
-0.75 0.125 0
-0.6875 0.125 0
-0.75 0.1875 0
-0.6875 0.1875 0
-0.875 -0.75 0
-0.875 -0.6875 0
-0.8125 -0.75 0
-0.8125 -0.6875 0
-0.875 -0.75 0
-0.8125 -0.75 0
-0.875 -0.6875 0
-0.8125 -0.6875 0
-0.1875 -0.75 0
-0.1875 -0.6875 0
-0.125 -0.75 0
-0.125 -0.6875 0
-0.1875 -0.75 0
-0.125 -0.75 0
-0.1875 -0.6875 0
-0.125 -0.6875 0
0.6875 -0.875 0
0.6875 -0.8125 0
0.75 -0.875 0
0.75 -0.8125 0
0.6875 -0.875 0
0.75 -0.875 0
0.6875 -0.8125 0
0.75 -0.8125 0
-1 -0.5 0
-1 -0.4375 0
-0.9375 -0.5 0
-0.9375 -0.4375 0
-1 -0.5 0
-0.9375 -0.5 0
-1 -0.4375 0
-0.9375 -0.4375 0
-0.9375 -0.5 0
-0.9375 -0.4375 0
-0.875 -0.5 0
-0.875 -0.4375 0
-0.9375 -0.5 0
-0.875 -0.5 0
-0.9375 -0.4375 0
-0.875 -0.4375 0
-1 -0.4375 0
-1 -0.375 0
-0.9375 -0.4375 0
-0.9375 -0.375 0
-1 -0.4375 0
-0.9375 -0.4375 0
-1 -0.375 0
-0.9375 -0.375 0
-0.9375 -0.4375 0
-0.9375 -0.375 0
-0.875 -0.4375 0
-0.875 -0.375 0
-0.9375 -0.4375 0
-0.875 -0.4375 0
-0.9375 -0.375 0
-0.875 -0.375 0
-0.125 -0.5 0
-0.125 -0.4375 0
-0.0625 -0.5 0
-0.0625 -0.4375 0
-0.125 -0.5 0
-0.0625 -0.5 0
-0.125 -0.4375 0
-0.0625 -0.4375 0
-0.0625 -0.5 0
-0.0625 -0.4375 0
0 -0.5 0
0 -0.4375 0
-0.0625 -0.5 0
0 -0.5 0
-0.0625 -0.4375 0
0 -0.4375 0
-0.125 -0.4375 0
-0.125 -0.375 0
-0.0625 -0.4375 0
-0.0625 -0.375 0
-0.125 -0.4375 0
-0.0625 -0.4375 0
-0.125 -0.375 0
-0.0625 -0.375 0
-0.0625 -0.4375 0
-0.0625 -0.375 0
0 -0.4375 0
0 -0.375 0
-0.0625 -0.4375 0
0 -0.4375 0
-0.0625 -0.375 0
0 -0.375 0
-0.5 0 0
-0.5 0.0625 0
-0.4375 0 0
-0.4375 0.0625 0
-0.5 0 0
-0.4375 0 0
-0.5 0.0625 0
[...]
POINT_DATA 22256
SCALARS u_hat double 1
LOOKUP_TABLE default
5.37285e-05 2.6623e-06 5.59588e-16 -1.49941e-16 5.152e-05 2.26248e-06 5.59588e-16 -1.49941e-16 0.000817766 0.000982487 0.000824079 0.000297022 0.000819577 0.000964007 0.000854065 0.000295102 0.000303797 2.27809e-05 8.05051e-05 5.34705e-05 0.00030336 6.3164e-06 9.3072e-05 5.37634e-05 0.000533562 0.000179354 5.02742e-06 -1.29564e-06 0.000706398 0.000190658 -5.71265e-05 6.24187e-05 8.05051e-05 5.34705e-05 3.68525e-05 2.76518e-05 1.24936e-06 0.00014239 5.152e-05 2.68913e-05 3.68525e-05 2.76518e-05 1.05362e-09 -2.80547e-10 -5.71265e-05 6.24187e-05 2.68913e-05 2.26248e-06 1.80041e-05 0.000156104 5.37285e-05 2.81954e-05 9.3072e-05 5.37634e-05 4.75661e-05 2.9139e-05 0.000733388 0.000208545 -5.28092e-05 7.15779e-05 0.000585792 0.000182395 5.02742e-06 -1.29564e-06 -5.28092e-05 7.15779e-05 2.81954e-05 2.6623e-06 4.75661e-05 2.9139e-05 1.05362e-09 -2.80547e-10 -0.000588514 0.00136041 0.0218184 0.00265739 0.00171632 0.0167402 0.00248048 0.000386303 -1.83257e-05 0.00137048 0.000876476 0.00210481 0.00248048 0.000386303 0.00164296 -0.000177767 0.000876476 0.00210481 0.0171904 0.00230353 0.00272214 0.0216844 0.00150068 0.000978613 0.0217743 0.00285678 0.00101815 0.001655 0.0170566 0.00258935 0.000735571 0.00244706 0.0170547 0.00258433 0.000739122 0.00244547 0.0217827 0.00285508 0.00101258 0.00165372 0.000739122 0.00244547 -2.27475e-05 0.00166103 0.000735571 0.00244706 -2.43058e-05 0.00166182 0.0013735 -3.88815e-05 0.00208775 0.000896265 0.00164296 -0.000177767 0.00239522 0.000454053 0.00208775 0.000896265 0.0022916 0.0172185 0.00150068 0.000978613 0.00271567 0.0216981 0.00126136 -0.00052858 0.00264652 0.0218434 0.00239522 0.000454053 0.00165951 0.0167833 0.00257645 0.0171441 0.0023367 0.000977277 0.00101258 0.00165372 0.0218595 0.00297131 0.0023367 0.000977277 0.000817766 0.000900126 -2.43058e-05 0.00166182 0.000663442 0.00279497 0.00291107 0.0220932 0.000900126 0.000982487 0.000663442 0.00279497 0.0172153 0.00194484 0.00147469 -0.00023984 0.00212784 0.000601235 0.00130716 -9.70635e-05 0.00207299 0.00065617 0.00212784 0.000601235 0.00142009 0.0169521 0.00119053 -0.000495338 0.00254836 0.0217486 0.00123788 -0.000563885 0.00254693 0.0217863 0.00207299 0.00065617 0.00142861 0.016975 0.00166157 0.0167831 0.00239791 0.000455836 -0.000527401 0.001264 0.0218423 0.00264801 0.00239791 0.000455836 0.00164801 -0.000172118 -3.66726e-05 0.00137899 0.000897516 0.0020938 0.00271748 0.0216966 0.00150627 0.000985806 0.000897516 0.0020938 0.0172165 0.00229888 0.00164801 -0.000172118 0.00248647 0.000394441 0.00137552 -1.14262e-05 0.00211039 0.000885457 0.00248647 0.000394441 0.0017189 0.0167467 0.00136694 -0.000584602 0.0026661 0.0218257 0.00150627 0.000985806 0.00273017 0.0216989 0.00211039 0.000885457 0.00231075 0.0172058 0.00126352 0.0168838 0.00166427 0.000598619 -0.000709093 0.000953723 0.0217006 0.0023612 0.00166427 0.000598619 -1.15266e-05 0.000176479 -0.000569356 0.000751724 0.000506478 0.0019862 0.00229938 0.0218054 8.6761e-05 0.00141873 0.000506478 0.0019862 0.0171379 0.00117201 0.00101815 0.001655 0.0218779 0.00296895 0.00258181 0.0171517 0.00233806 0.00098226 -2.27475e-05 0.00166103 0.000659802 0.00278797 0.00233806 0.00098226 0.000819577 0.000891792 0.000659802 0.00278797 0.0172096 0.00192089 0.00291064 0.0220797 0.000891792 0.000964007 0.0219432 0.00245927 0.00141873 8.6761e-05 0.0170472 0.00131966 0.000575264 0.00206876 0.0172578 0.00142783 0.000735864 0.00203089 0.0218902 0.0025442 0.000706398 0.000448528 0.000735864 0.00203089 0.000176479 -1.15266e-05 0.000575264 0.00206876 0.000448528 0.000190658 -0.000598723 0.000965988 0.0216787 0.00237206 0.00130235 0.016874 0.00177336 0.000547799 -0.000384045 0.000619926 0.000573834 0.00192218 0.00177336 0.000547799 -1.15266e-05 0.000176479 0.000573834 0.00192218 0.0171621 0.00115783 0.00230349 0.0218237 8.6761e-05 0.00141873 0.0218865 0.00257526 0.000733388 0.000470966 0.0172498 0.00147768 0.00073309 0.00206691 0.0169992 0.00134587 0.000502428 0.00215525 0.0219016 0.0024905 0.00141873 8.6761e-05 0.000502428 0.00215525 0.000470966 0.000208545 0.00073309 0.00206691 0.000176479 -1.15266e-05 0.000824079 0.000560551 0.000187486 0.00348332 0.00251882 0.00541564 0.000295229 0.000268554 0.000187486 0.00348332 0.000294828 0.00447124 0.00577215 0.00858471 0.00020036 0.000211491 0.000560551 0.000297022 2.19094e-05 0.000268462 0.000295229 0.000268554 0.00030336 0.000154838 2.19094e-05 0.000268462 -0.000115898 0.000232376 0.00020036 0.000211491 0.000154838 6.3164e-06 0.00254393 0.00545961 0.000313114 0.000297158 0.000854065 0.000574584 0.000243811 0.00350779 0.000313114 0.000297158 0.000303797 0.000163289 0.000574584 0.000295102 4.78533e-05 0.000278214 0.0058145 0.00864484 0.000228356 0.00025135 0.000243811 0.00350779 0.000375323 0.00449118 0.000228356 0.00025135 0.000163289 2.27809e-05 4.78533e-05 0.000278214 -8.03845e-05 0.000246736 0.000294828 0.00447124 0.000178452 0.00328249 0.00858124 0.00565736 0.000211871 0.000111757 0.000178452 0.00328249 0.000533562 0.000356458 0.0053217 0.00218021 0.000186907 9.71076e-05 -0.000115898 0.000232376 -7.01697e-05 0.000184213 0.000211871 0.000111757 1.24936e-06 7.18197e-05 -7.01697e-05 0.000184213 0.000356458 0.000179354 0.000186907 9.71076e-05 7.18197e-05 0.00014239 0.00864263 0.00570651 0.000252391 0.000142469 0.000375323 0.00449118 0.000265303 0.0032887 0.000252391 0.000142469 1.80041e-05 8.70541e-05 -8.03845e-05 0.000246736 -3.72401e-05 0.00020017 0.00537279 0.00222372 0.00021866 0.000128362 0.000265303 0.0032887 0.000585792 0.000384094 0.00021866 0.000128362 8.70541e-05 0.000156104 -3.72401e-05 0.00020017 0.000384094 0.000182395 0.0480912 0.0227541 0.142331 0.0704349 0.0456833 0.133623 0.026431 0.0642744 0.142455 0.0704953 0.048378 0.0229115 0.133758 0.0458442 0.0644256 0.0265099 0.0459031 0.133845 0.0265875 0.0645428 0.0484371 0.0229915 0.14254 0.0706078 0.0646319 0.0261703 0.133829 0.0456615 0.0703747 0.14238 0.0228563 0.0483325 0.133743 0.045861 0.0644232 0.0265283 0.142457 0.0705035 0.048386 0.0229082 0.0227301 0.0481443 0.0704682 0.142363 0.0264007 0.0643585 0.0457096 0.133645 0.0706846 0.142646 0.0230473 0.0485001 0.0645808 0.0267556 0.133911 0.046034 0.0260415 0.064572 0.0454873 0.133764 0.0227387 0.048066 0.0703362 0.142285 0.0457096 0.133641 0.0264001 0.0643549 0.048144 0.0227294 0.142359 0.0704644 0.0264377 0.0642853 0.0456873 0.133632 0.0227611 0.0480954 0.0704459 0.14234 0.0228711 0.0483525 0.0703914 0.142404 0.0261852 0.0646491 0.0456815 0.133854 0.0703226 0.142292 0.0227777 0.0480744 0.0645598 0.0260463 0.133775 0.0454998 0.0484578 0.0229976 0.142555 0.0706241 0.0459323 0.133842 0.0266151 0.0645487 0.0645831 0.0267297 0.133922 0.0460034 0.0706763 0.14264 0.0230426 0.0484776 0.142417 0.0705258 0.0481805 0.0228187 0.133706 0.0457502 0.0644239 0.026443 0.133971 0.0457225 0.0647695 0.0262163 0.142521 0.0704747 0.0483627 0.0228749 0.0480111 0.0226601 0.142246 0.0702803 0.0454311 0.133725 0.0259588 0.0645188 0.0645669 0.0260908 0.133742 0.0455669 0.0703472 0.142305 0.0227571 0.0481329 0.142505 0.0704701 0.0483657 0.0228847 0.133936 0.0457505 0.0647085 0.0262802 0.133679 0.0457103 0.0643386 0.0264648 0.142378 0.0704923 0.048116 0.0228312 0.0261244 0.0647068 0.0456613 0.133887 0.0228667 0.0483583 0.0703931 0.142417 0.0227226 0.0481417 0.0703713 0.142314 0.0261001 0.0645887 0.0455695 0.133745 0.0703877 0.142407 0.022865 0.0483537 0.0647012 0.0261227 0.133877 0.0456566 0.0454984 0.133702 0.0260019 0.0645337 0.0480721 0.0226289 0.14227 0.0703126 0.00774737 0.00658843 0.0339677 0.0301161 0.0132699 0.0219873 0.0122751 0.0198268 0.0339677 0.0301161 0.120622 0.108871 0.0446781 0.092235 0.0410081 0.0832502 0.00739415 0.00468707 0.0312156 0.0219509 0.0122751 0.0198268 0.0095081 0.0147539 0.0312156 0.0219509 0.109164 0.0802569 0.0410081 0.0832502 0.0314625 0.06153 0.12095 0.109132 0.0355895 0.0314609 0.0931119 0.0452657 0.0841333 0.0414929 0.0355895 0.0314609 0.0158 0.0137276 0.0256158 0.0175167 0.0232187 0.0160491 0.109528 0.080429 0.0327995 0.0228667 0.0841333 0.0414929 0.06229 0.0318005 0.0327995 0.0228667 0.0147805 0.00985345 0.0232187 0.0160491 0.0174358 0.0122213 0.0175072 0.0256225 0.0160403 0.0232306 0.01579 0.0137198 0.0355956 0.0314724 0.0160403 0.0232306 0.0122131 0.0174546 0.0147721 0.0098457 0.032811 0.0228846 0.0452719 0.0931333 0.0415042 0.0841642 0.0355956 0.0314724 0.120971 0.109162 0.0415042 0.0841642 0.0318182 0.0623336 0.032811 0.0228846 0.109559 0.0804714 0.0626948 0.0313129 0.0843751 0.0412196 0.0803662 0.109496 0.0228226 0.0327853 0.0843751 0.0412196 0.0930599 0.0453199 0.109099 0.120943 0.0314448 0.0355947 0.0175293 0.0120474 0.0232864 0.0159457 0.0228226 0.0327853 0.00980591 0.0147544 0.0232864 0.0159457 0.0256047 0.017523 0.0314448 0.0355947 0.0137008 0.0157912 0.0930599 0.0453199 0.0841093 0.0415273 0.120935 0.109145 0.0355915 0.0314684 0.0841093 0.0415273 0.062288 0.0318092 0.109537 0.0804298 0.0328066 0.022866 0.0256047 0.017523 0.0232131 0.0160517 0.0355915 0.0314684 0.01579 0.0137198 0.0232131 0.0160517 0.0174312 0.0122199 0.0328066 0.022866 0.0147721 0.0098457 0.00465317 0.00731187 0.0219291 0.0311571 0.00933142 0.0148447 0.0121452 0.0198551 0.0219291 0.0311571 0.0802764 0.10915 0.0312201 0.0617523 0.040806 0.083394 0.0065524 0.00767909 0.0300811 0.0338972 0.0121452 0.0198551 0.0132064 0.0219412 0.0300811 0.0338972 0.108871 0.120575 0.040806 0.083394 0.0445767 0.0922371 0.0805653 0.109586 0.0224131 0.0316044 0.0619928 0.0317463 0.0836758 0.0413816 0.0224131 0.0316044 0.0058145 0.00722967 0.0152092 0.00988289 0.0203107 0.0128178 0.109224 0.121007 0.0305117 0.0345274 0.0836758 0.0413816 0.0925794 0.0451455 0.0305117 0.0345274 0.00722967 0.00864484 0.0203107 0.0128178 0.0225065 0.0140206 0.00924224 0.014943 0.012091 0.0199399 0.00467908 0.00733545 0.0219152 0.0311624 0.012091 0.0199399 0.0132247 0.0219586 0.00657196 0.00770391 0.030077 0.033923 0.0308885 0.0620259 0.040608 0.0835794 0.0219152 0.0311624 0.0802122 0.109116 0.040608 0.0835794 0.0445941 0.0922504 0.030077 0.033923 0.10883 0.120594 0.0132247 0.0219586 0.0121558 0.0198649 0.00769674 0.00656282 0.033914 0.0300906 0.0121558 0.0198649 0.00933718 0.0148496 0.00732205 0.00465872 0.0311663 0.0219338 0.0445941 0.0922504 0.0408158 0.0834005 0.033914 0.0300906 0.120588 0.108877 0.0408158 0.0834005 0.031225 0.0617545 0.0311663 0.0219338 0.109156 0.0802783 0.00950034 0.0147483 0.0122576 0.0198122 0.0046798 0.00737754 0.0219456 0.0312017 0.0122576 0.0198122 0.0132387 0.0219601 0.00657163 0.00771716 0.030102 0.0339409 0.0314567 0.0615297 0.0409933 0.0832426 0.0219456 0.0312017 0.080257 0.109157 0.0409933 0.0832426 0.0446505 0.0922162 0.030102 0.0339409 0.108864 0.120603 0.00981473 0.0147637 0.0228404 0.0328067 0.0120561 0.0175472 0.0159549 0.0233079 0.0228404 0.0328067 0.0803922 0.109529 0.0313305 0.062721 0.041241 0.0844083 0.01371 0.0158006 0.0314659 0.0356202 0.0159549 0.0233079 0.0175321 0.0256299 0.0314659 0.0356202 0.109131 0.120985 0.041241 0.0844083 0.0453451 0.0931009 0.0802445 0.109169 0.0220316 0.0311698 0.0620516 0.0308834 0.0836478 0.0406985 0.0220316 0.0311698 0.00524082 0.00703472 0.0149714 0.00924788 0.0200554 0.012286 0.108899 0.120672 0.0302344 0.0340233 0.0836478 0.0406985 0.0923368 0.0447162 0.0302344 0.0340233 0.00707489 0.00780107 0.0200554 0.012286 0.0221141 0.0134953 0.0158 0.0137276 0.035619 0.0314938 0.0175321 0.0256299 0.0160599 0.0232416 0.035619 0.0314938 0.120985 0.109182 0.0453451 0.0931009 0.041555 0.0841554 0.0147805 0.00985345 0.0328341 0.0228993 0.0160599 0.0232416 0.012227 0.017465 0.0328341 0.0228993 0.10958 0.0804862 0.041555 0.0841554 0.0318417 0.062345 0.0619748 0.0317048 0.0836764 0.0413095 0.0805469 0.109553 0.022386 0.0315514 0.0836764 0.0413095 0.0926063 0.0450513 0.109188 0.120997 0.0304663 0.0344833 0.0151786 0.00983479 0.0202754 0.012758 0.022386 0.0315514 0.00577215 0.00717843 0.0202754 0.012758 0.0224726 0.013953 0.0304663 0.0344833 0.00717843 0.00858471 0.120666 0.108952 0.0340157 0.0302497 0.0923368 0.0447162 0.0834776 0.0409051 0.0340157 0.0302497 0.00780107 0.00707489 0.0221141 0.0134953 0.0199872 0.0123575 0.109215 0.0803245 0.0311762 0.0220509 0.0834776 0.0409051 0.0617981 0.031213 0.0311762 0.0220509 0.00703472 0.00524082 0.0199872 0.0123575 0.0148864 0.00933814 0.0926063 0.0450513 0.0839709 0.040925 0.120994 0.109136 0.0344828 0.0304144 0.0839709 0.040925 0.0624103 0.0310781 0.109496 0.0804473 0.0314942 0.0222827 0.0224726 0.013953 0.0203703 0.0125564 0.0344828 0.0304144 0.00858124 0.0071193 0.0203703 0.0125564 0.0152986 0.00949926 0.0314942 0.0222827 0.0071193 0.00565736 0.0076859 0.00654327 0.033906 0.0300493 0.0132064 0.0219412 0.0120613 0.0199115 0.033906 0.0300493 0.120581 0.108808 0.0445767 0.0922371 0.0405793 0.0835563 0.00730616 0.00463439 0.0311343 0.0218718 0.0120613 0.0199115 0.0091956 0.0148989 0.0311343 0.0218718 0.109094 0.0801757 0.0405793 0.0835563 0.0308435 0.061989 0.0622219 0.0307412 0.0837386 0.0406308 0.0802651 0.109186 0.0220301 0.0311815 0.0837386 0.0406308 0.0922961 0.0447681 0.108922 0.120665 0.0302451 0.0340283 0.0150773 0.00914384 0.0201193 0.0122296 0.0220301 0.0311815 0.00524082 0.00703472 0.0201193 0.0122296 0.0221137 0.0135045 0.0302451 0.0340283 0.00707489 0.00780107 0.121015 0.109151 0.0345302 0.0304564 0.0925794 0.0451455 0.0839263 0.0410303 0.0345302 0.0304564 0.00864263 0.00717457 0.0225065 0.0140206 0.020398 0.0126274 0.109519 0.0804483 0.0315515 0.0223054 0.0839263 0.0410303 0.0623635 0.0311686 0.0315515 0.0223054 0.00717457 0.00570651 0.020398 0.0126274 0.015315 0.00956816 0.0922961 0.0447681 0.0833056 0.04107 0.120673 0.108926 0.034035 0.0302482 0.0833056 0.04107 0.0615554 0.0314297 0.109202 0.0802871 0.0311946 0.0220455 0.0221137 0.0135045 0.0199187 0.012434 0.034035 0.0302482 0.00780107 0.00707489 0.0199187 0.012434 0.014763 0.00946777 0.0311946 0.0220455 0.00703472 0.00524082 0.0120292 0.0175545 0.015928 0.023306 0.00980591 0.0147544 0.0228325 0.0327838 0.015928 0.023306 0.0175072 0.0256225 0.0137008 0.0157912 0.0314477 0.0355955 0.0312652 0.0627761 0.04116 0.0844603 0.0228325 0.0327838 0.0803984 0.109516 0.04116 0.0844603 0.0452719 0.0931333 0.0314477 0.0355955 0.109124 0.120969 0.00465922 0.00738549 0.021939 0.0312059 0.00916552 0.0150696 0.0120625 0.0200293 0.021939 0.0312059 0.0802567 0.109161 0.0307739 0.0622183 0.0405728 0.0836961 0.00658261 0.00774124 0.0301194 0.0339584 0.0120625 0.0200293 0.0132699 0.0219873 0.0301194 0.0339584 0.108881 0.120613 0.0405728 0.0836961 0.0446781 0.092235 0.0803899 0.109502 0.0228324 0.0327812 0.0627673 0.0312651 0.0844461 0.0411574 0.0228324 0.0327812 0.00981473 0.0147637 0.0175543 0.0120381 0.0233031 0.0159374 0.109111 0.120948 0.031445 0.0355893 0.0844461 0.0411574 0.0931119 0.0452657 0.031445 0.0355893 0.01371 0.0158006 0.0233031 0.0159374 0.0256158 0.0175167 0.0132387 0.0219601 0.0120128 0.0199856 0.00771081 0.00653449 0.0339316 0.0300762 0.0120128 0.0199856 0.00909081 0.0150049 0.0073368 0.00458741 0.0311623 0.0218746 0.0446505 0.0922162 0.0405282 0.0836633 0.0339316 0.0300762 0.120595 0.108848 0.0405282 0.0836633 0.0307074 0.0621687 0.0311623 0.0218746 0.109128 0.080207 0.00565289 0.00305293 0.0231781 0.0134735 0.0095081 0.0147539 0.00589837 0.00962183 0.0231781 0.0134735 0.0803561 0.049017 0.0314625 0.06153 0.0202009 0.036995 0.00396169 0.00269729 0.0141353 0.00700101 0.00589837 0.00962183 0.00171632 0.00922829 0.0141353 0.00700101 0.0480912 0.0227541 0.0202009 0.036995 0.00922829 0.0167402 0.0806544 0.0491602 0.0243805 0.0140544 0.06229 0.0318005 0.0375202 0.0204506 0.0243805 0.0140544 0.0111185 0.00616732 0.0174358 0.0122213 0.0114026 0.00749254 0.048378 0.0229115 0.0149021 0.00736758 0.0375202 0.0204506 0.0170566 0.00982297 0.0149021 0.00736758 0.00721586 0.00415582 0.0114026 0.00749254 0.00982297 0.00258935 0.0122131 0.0174546 0.00748519 0.011431 0.0111109 0.00616067 0.0243987 0.0140811 0.00748519 0.011431 0.00257645 0.00986029 0.00720926 0.00415067 0.0149287 0.00740502 0.0318182 0.0623336 0.0204761 0.0375806 0.0243987 0.0140811 0.0806968 0.0492184 0.0204761 0.0375806 0.00986029 0.0171441 0.0149287 0.00740502 0.0484371 0.0229915 0.0171904 0.00974697 0.0378899 0.0199539 0.0228563 0.0483325 0.0072958 0.0148458 0.0378899 0.0199539 0.0626948 0.0313129 0.0490366 0.0806108 0.013979 0.0243434 0.00974697 0.00230353 0.0114353 0.00730326 0.0072958 0.0148458 0.00395411 0.00709524 0.0114353 0.00730326 0.0175293 0.0120474 0.013979 0.0243434 0.00608253 0.0110707 0.062288 0.0318092 0.0375287 0.0204371 0.0806565 0.0491659 0.0243798 0.0140515 0.0375287 0.0204371 0.0170547 0.00981951 0.048386 0.0229082 0.0148988 0.00735599 0.0174312 0.0122199 0.011394 0.00748941 0.0243798 0.0140515 0.0111109 0.00616067 0.011394 0.00748941 0.00981951 0.00258433 0.0148988 0.00735599 0.00720926 0.00415067 0.00268795 0.00388931 0.00699811 0.0141194 0.00165951 0.0092214 0.00571324 0.00976112 0.00699811 0.0141194 0.0227301 0.0481443 0.0092214 0.0167833 0.0199974 0.0371854 0.00301677 0.00558419 0.0134556 0.0231451 0.00571324 0.00976112 0.00933142 0.0148447 0.0134556 0.0231451 0.0490465 0.0803671 0.0199974 0.0371854 0.0312201 0.0617523 0.0230473 0.0485001 0.00731517 0.0145348 0.0172153 0.00958008 0.0374486 0.0204497 0.00731517 0.0145348 0.00254393 0.00400177 0.00958008 0.00194484 0.0100025 0.00604852 0.0493347 0.0807414 0.0138672 0.0234795 0.0374486 0.0204497 0.0619928 0.0317463 0.0138672 0.0234795 0.00400177 0.00545961 0.0100025 0.00604852 0.0152092 0.00988289 0.00142009 0.0091861 0.00562738 0.00977547 0.00250179 0.0038413 0.00698849 0.0140992 0.00562738 0.00977547 0.00924224 0.014943 0.00300544 0.00559449 0.0134224 0.023138 0.0091861 0.0169521 0.0196888 0.0374366 0.00698849 0.0140992 0.0227387 0.048066 0.0196888 0.0374366 0.0308885 0.0620259 0.0134224 0.023138 0.0489127 0.0803256 0.00933718 0.0148496 0.00571626 0.00976332 0.00558957 0.00301957 0.0231497 0.0134576 0.00571626 0.00976332 0.00166157 0.00922231 0.00389197 0.00268964 0.0141213 0.00699918 0.031225 0.0617545 0.0199995 0.0371855 0.0231497 0.0134576 0.080369 0.0490463 0.0199995 0.0371855 0.00922231 0.0167831 0.0141213 0.00699918 0.048144 0.0227294 0.0017189 0.00923278 0.00589712 0.00962229 0.00270053 0.00396107 0.00700531 0.014136 0.00589712 0.00962229 0.00950034 0.0147483 0.0030521 0.0056459 0.013474 0.0231731 0.00923278 0.0167467 0.0202012 0.036999 0.00700531 0.014136 0.0227611 0.0480954 0.0202012 0.036999 0.0314567 0.0615297 0.013474 0.0231731 0.0490212 0.0803563 0.00396122 0.00710333 0.00730712 0.0148602 0.00231075 0.00975827 0.00731126 0.0114498 0.00730712 0.0148602 0.0228711 0.0483525 0.00975827 0.0172058 0.0199682 0.0379101 0.00609054 0.0110796 0.0139932 0.0243611 0.00731126 0.0114498 0.0120561 0.0175472 0.0139932 0.0243611 0.0490565 0.0806369 0.0199682 0.0379101 0.0313305 0.062721 0.0227777 0.0480744 0.00695008 0.0140438 0.0171379 0.00915495 0.0374519 0.0196083 0.00695008 0.0140438 0.00155589 0.00314062 0.00915495 0.00117201 0.00962383 0.00520383 0.0489164 0.0803458 0.0133544 0.0230595 0.0374519 0.0196083 0.0620516 0.0308834 0.0133544 0.0230595 0.00316574 0.00519305 0.00962383 0.00520383 0.0149714 0.00924788 0.0111185 0.00616732 0.0244127 0.0140913 0.012227 0.017465 0.00749524 0.0114353 0.0244127 0.0140913 0.0807127 0.0492366 0.0318417 0.062345 0.0204756 0.0376015 0.00721586 0.00415582 0.0149384 0.00740347 0.00749524 0.0114353 0.00258181 0.00986677 0.0149384 0.00740347 0.0484578 0.0229976 0.0204756 0.0376015 0.00986677 0.0171517 0.0172096 0.00956526 0.0374245 0.0204381 0.0230426 0.0484776 0.00730829 0.0145103 0.0374245 0.0204381 0.0619748 0.0317048 0.0493157 0.0807189 0.0138474 0.0234414 0.00956526 0.00192089 0.00998408 0.00600942 0.00730829 0.0145103 0.00251882 0.00396723 0.00998408 0.00600942 0.0151786 0.00983479 0.0138474 0.0234414 0.00396723 0.00541564 0.0804041 0.049077 0.0230703 0.013375 0.0617981 0.031213 0.0372362 0.019907 0.0230703 0.013375 0.00519305 0.00316574 0.0148864 0.00933814 0.00960057 0.00523669 0.0481805 0.0228187 0.0140616 0.0069626 0.0372362 0.019907 0.0170472 0.00918343 0.0140616 0.0069626 0.00314062 0.00155589 0.00960057 0.00523669 0.0