# vtk DataFile Version 3.0
#This file was generated by the deal.II library on 2020/8/22 at 21:53:44
ASCII
DATASET UNSTRUCTURED_GRID

POINTS 64 double
-1 -1 0
-0.5 -1 0
-1 -0.5 0
-0.5 -0.5 0
-0.5 -1 0
0 -1 0
-0.5 -0.5 0
0 -0.5 0
-1 -0.5 0
-0.5 -0.5 0
-1 0 0
-0.5 0 0
-0.5 -0.5 0
0 -0.5 0
-0.5 0 0
0 0 0
0 -1 0
0.5 -1 0
0 -0.5 0
0.5 -0.5 0
0.5 -1 0
1 -1 0
0.5 -0.5 0
1 -0.5 0
0 -0.5 0
0.5 -0.5 0
0 0 0
0.5 0 0
0.5 -0.5 0
1 -0.5 0
0.5 0 0
1 0 0
-1 0 0
-0.5 0 0
-1 0.5 0
-0.5 0.5 0
-0.5 0 0
0 0 0
-0.5 0.5 0
0 0.5 0
-1 0.5 0
-0.5 0.5 0
-1 1 0
-0.5 1 0
-0.5 0.5 0
0 0.5 0
-0.5 1 0
0 1 0
0 0 0
0.5 0 0
0 0.5 0
0.5 0.5 0
0.5 0 0
1 0 0
0.5 0.5 0
1 0.5 0
0 0.5 0
0.5 0.5 0
0 1 0
0.5 1 0
0.5 0.5 0
1 0.5 0
0.5 1 0
1 1 0

CELLS 16 80
4	0	1	3	2
4	4	5	7	6
4	8	9	11	10
4	12	13	15	14
4	16	17	19	18
4	20	21	23	22
4	24	25	27	26
4	28	29	31	30
4	32	33	35	34
4	36	37	39	38
4	40	41	43	42
4	44	45	47	46
4	48	49	51	50
4	52	53	55	54
4	56	57	59	58
4	60	61	63	62

CELL_TYPES 16
 9 9 9 9 9 9 9 9 9 9 9 9 9 9 9 9
POINT_DATA 64
VECTORS gradient double
12.5899 -10.1082 0
3.80636 -13.7243 0
0.658777 0.739673 0
-1.74437 -9.27862 0
1.72931 -13.8281 0
2.79238 0.98179 0
14.393 -9.42526 0
15.4411 1.82655 0
0.558052 3.36032 0
-1.32535 8.61778 0
1.42084 8.91373 0
5.48621 12.8188 0
14.1651 8.75038 0
15.1443 1.08133 0
5.18686 12.9801 0
7.16215 3.63896 0
5.95115 0.753093 0
10.5225 -4.40485 0
0.251207 1.75923 0
2.41594 -6.3945 0
11.9764 -4.43658 0
13.4289 1.76311 0
19.3441 -6.75158 0
23.2603 1.35948 0
0.104838 1.36238 0
2.22272 9.62179 0
9.49165 3.56304 0
9.99936 13.0772 0
19.3701 9.92352 0
23.6409 -1.73667 0
7.76251 13.3395 0
8.02037 -2.01173 0
1.6468 11.8142 0
5.55564 -1.49712 0
-11.4764 13.7247 0
-5.99313 2.89999 0
4.94077 -1.18498 0
6.84149 6.47162 0
11.5203 3.2845 0
15.5059 9.02835 0
-11.4804 12.7717 0
-5.85135 21.2822 0
1.00551 16.5094 0
1.76009 29.7184 0
11.3906 21.0734 0
15.2687 8.53654 0
-0.956854 29.3625 0
-1.31546 11.0055 0
7.68949 4.89342 0
8.4363 5.47522 0
8.02971 7.74933 0
5.65002 4.50556 0
9.30984 5.43105 0
9.97028 -0.336696 0
5.28028 4.51396 0
5.22135 0.00825356 0
7.97647 10.0562 0
5.68791 5.04488 0
-0.0312809 12.5467 0
0.0274688 5.13848 0
5.27888 5.01981 0
5.20747 0.0532982 0
-0.0318715 5.12974 0
-0.0893341 0.0753464 0
SCALARS solution double 1
LOOKUP_TABLE default
15.1461 11.4175 16.9589 20.138 11.3873 10.7674 20.315 9.88243 16.9819 20.009 13.9555 11.9177 20.1907 9.90332 11.8779 9.00706 10.7404 6.45783 10.0571 12.1081 6.44401 0.024545 12.2448 -1.25163 9.99885 12.2808 9.0387 3.76398 12.4121 -1.28771 3.7356 0.227785 13.9768 11.7436 7.20376 14.4896 11.7826 9.02435 14.3485 4.83088 7.22553 14.3157 0.402379 -0.846763 14.17 4.8934 -0.854496 0.194024 8.82276 4.91098 5.87736 2.59508 4.89976 -0.0246925 2.58484 0.0356501 5.8794 2.58916 -0.021142 -0.035518 2.58063 0.035008 -0.0340804 -0.00100953 
SCALARS u_post double 1
LOOKUP_TABLE default
15.7353 12.099 17.6154 17.8686 12.1367 11.1766 17.9037 10.5219 17.5117 17.8434 14.1436 12.3708 17.8485 10.5761 12.3844 9.35828 11.153 7.16954 10.5776 9.98387 7.14802 0.549796 10.04 -0.496919 10.5903 10.0029 9.3767 4.42225 10.0677 -0.543361 4.37772 0.546619 14.1643 12.3108 7.69141 11.939 12.3609 9.36654 11.8789 5.30393 7.68497 11.9562 0.432584 -0.523349 11.896 5.31065 -0.443188 0.449618 8.86201 4.9499 5.82338 2.54977 4.94047 -0.0168174 2.57263 -0.00316334 5.8129 2.55807 0.00263438 0.00877138 2.57864 -0.00323392 0.0040991 0.000786295 
