# vtk DataFile Version 3.0
#This file was generated by the deal.II library on 2020/8/22 at 21:54:23
ASCII
DATASET UNSTRUCTURED_GRID

POINTS 36864 double
-1 -1 0
-0.986111 -1 0
-0.972222 -1 0
-0.958333 -1 0
-1 -0.986111 0
-0.986111 -0.986111 0
-0.972222 -0.986111 0
-0.958333 -0.986111 0
-1 -0.972222 0
-0.986111 -0.972222 0
-0.972222 -0.972222 0
-0.958333 -0.972222 0
-1 -0.958333 0
-0.986111 -0.958333 0
-0.972222 -0.958333 0
-0.958333 -0.958333 0
-0.958333 -1 0
-0.944444 -1 0
-0.930556 -1 0
-0.916667 -1 0
-0.958333 -0.986111 0
-0.944444 -0.986111 0
-0.930556 -0.986111 0
-0.916667 -0.986111 0
-0.958333 -0.972222 0
-0.944444 -0.972222 0
-0.930556 -0.972222 0
-0.916667 -0.972222 0
-0.958333 -0.958333 0
-0.944444 -0.958333 0
-0.930556 -0.958333 0
-0.916667 -0.958333 0
-1 -0.958333 0
-0.986111 -0.958333 0
-0.972222 -0.958333 0
-0.958333 -0.958333 0
-1 -0.944444 0
-0.986111 -0.944444 0
-0.972222 -0.944444 0
-0.958333 -0.944444 0
-1 -0.930556 0
-0.986111 -0.930556 0
-0.972222 -0.930556 0
-0.958333 -0.930556 0
-1 -0.916667 0
-0.986111 -0.916667 0
-0.972222 -0.916667 0
-0.958333 -0.916667 0
-0.958333 -0.958333 0
-0.944444 -0.958333 0
-0.930556 -0.958333 0
-0.916667 -0.958333 0
-0.958333 -0.944444 0
-0.944444 -0.944444 0
-0.930556 -0.944444 0
-0.916667 -0.944444 0
-0.958333 -0.930556 0
-0.944444 -0.930556 0
-0.930556 -0.930556 0
-0.916667 -0.930556 0
-0.958333 -0.916667 0
-0.944444 -0.916667 0
-0.930556 -0.916667 0
-0.916667 -0.916667 0
-0.916667 -1 0
-0.902778 -1 0
-0.888889 -1 0
-0.875 -1 0
-0.916667 -0.986111 0
-0.902778 -0.986111 0
-0.888889 -0.986111 0
-0.875 -0.986111 0
-0.916667 -0.972222 0
-0.902778 -0.972222 0
-0.888889 -0.972222 0
-0.875 -0.972222 0
-0.916667 -0.958333 0
-0.902778 -0.958333 0
-0.888889 -0.958333 0
-0.875 -0.958333 0
-0.875 -1 0
-0.861111 -1 0
-0.847222 -1 0
-0.833333 -1 0
-0.875 -0.986111 0
-0.861111 -0.986111 0
-0.847222 -0.986111 0
-0.833333 -0.986111 0
-0.875 -0.972222 0
-0.861111 -0.972222 0
-0.847222 -0.972222 0
-0.833333 -0.972222 0
-0.875 -0.958333 0
-0.861111 -0.958333 0
-0.847222 -0.958333 0
-0.833333 -0.958333 0
-0.916667 -0.958333 0
-0.902778 -0.958333 0
-0.888889 -0.958333 0
-0.875 -0.958333 0
-0.916667 -0.944444 0
-0.902778 -0.944444 0
-0.888889 -0.944444 0
-0.875 -0.944444 0
-0.916667 -0.930556 0
-0.902778 -0.930556 0
-0.888889 -0.930556 0
-0.875 -0.930556 0
-0.916667 -0.916667 0
-0.902778 -0.916667 0
-0.888889 -0.916667 0
-0.875 -0.916667 0
-0.875 -0.958333 0
-0.861111 -0.958333 0
-0.847222 -0.958333 0
-0.833333 -0.958333 0
-0.875 -0.944444 0
-0.861111 -0.944444 0
-0.847222 -0.944444 0
-0.833333 -0.944444 0
-0.875 -0.930556 0
-0.861111 -0.930556 0
-0.847222 -0.930556 0
-0.833333 -0.930556 0
-0.875 -0.916667 0
-0.861111 -0.916667 0
-0.847222 -0.916667 0
-0.833333 -0.916667 0
-1 -0.916667 0
-0.986111 -0.916667 0
-0.972222 -0.916667 0
-0.958333 -0.916667 0
-1 -0.902778 0
-0.986111 -0.902778 0
-0.972222 -0.902778 0
-0.958333 -0.902778 0
-1 -0.888889 0
-0.986111 -0.888889 0
-0.972222 -0.888889 0
-0.958333 -0.888889 0
-1 -0.875 0
-0.986111 -0.875 0
-0.972222 -0.875 0
-0.958333 -0.875 0
-0.958333 -0.916667 0
-0.944444 -0.916667 0
-0.930556 -0.916667 0
-0.916667 -0.916667 0
-0.958333 -0.902778 0
-0.944444 -0.902778 0
-0.930556 -0.902778 0
-0.916667 -0.902778 0
-0.958333 -0.888889 0
-0.944444 -0.888889 0
-0.930556 -0.888889 0
-0.916667 -0.888889 0
-0.958333 -0.875 0
-0.944444 -0.875 0
-0.930556 -0.875 0
-0.916667 -0.875 0
-1 -0.875 0
-0.986111 -0.875 0
-0.972222 -0.875 0
-0.958333 -0.875 0
-1 -0.861111 0
-0.986111 -0.861111 0
-0.972222 -0.861111 0
-0.958333 -0.861111 0
-1 -0.847222 0
-0.986111 -0.847222 0
-0.972222 -0.847222 0
-0.958333 -0.847222 0
-1 -0.833333 0
-0.986111 -0.833333 0
-0.972222 -0.833333 0
-0.958333 -0.833333 0
-0.958333 -0.875 0
-0.944444 -0.875 0
-0.930556 -0.875 0
-0.916667 -0.875 0
-0.958333 -0.861111 0
-0.944444 -0.861111 0
-0.930556 -0.861111 0
-0.916667 -0.861111 0
-0.958333 -0.847222 0
-0.944444 -0.847222 0
-0.930556 -0.847222 0
-0.916667 -0.847222 0
-0.958333 -0.833333 0
-0.944444 -0.833333 0
-0.930556 -0.833333 0
-0.916667 -0.833333 0
-0.916667 -0.916667 0
-0.902778 -0.916667 0
-0.888889 -0.916667 0
-0.875 -0.916667 0
-0.916667 -0.902778 0
-0.902778 -0.902778 0
-0.888889 -0.902778 0
-0.875 -0.902778 0
-0.916667 -0.888889 0
-0.902778 -0.888889 0
-0.888889 -0.888889 0
-0.875 -0.888889 0
-0.916667 -0.875 0
-0.902778 -0.875 0
-0.888889 -0.875 0
-0.875 -0.875 0
-0.875 -0.916667 0
-0.861111 -0.916667 0
-0.847222 -0.916667 0
-0.833333 -0.916667 0
-0.875 -0.902778 0
-0.861111 -0.902778 0
-0.847222 -0.902778 0
-0.833333 -0.902778 0
-0.875 -0.888889 0
-0.861111 -0.888889 0
-0.847222 -0.888889 0
-0.833333 -0.888889 0
-0.875 -0.875 0
-0.861111 -0.875 0
-0.847222 -0.875 0
-0.833333 -0.875 0
-0.916667 -0.875 0
-0.902778 -0.875 0
-0.888889 -0.875 0
-0.875 -0.875 0
-0.916667 -0.861111 0
-0.902778 -0.861111 0
-0.888889 -0.861111 0
-0.875 -0.861111 0
-0.916667 -0.847222 0
-0.902778 -0.847222 0
-0.888889 -0.847222 0
-0.875 -0.847222 0
-0.916667 -0.833333 0
-0.902778 -0.833333 0
-0.888889 -0.833333 0
-0.875 -0.833333 0
-0.875 -0.875 0
-0.861111 -0.875 0
-0.847222 -0.875 0
-0.833333 -0.875 0
-0.875 -0.861111 0
-0.861111 -0.861111 0
-0.847222 -0.861111 0
-0.833333 -0.861111 0
-0.875 -0.847222 0
-0.861111 -0.847222 0
-0.847222 -0.847222 0
-0.833333 -0.847222 0
-0.875 -0.833333 0
-0.861111 -0.833333 0
-0.847222 -0.833333 0
-0.833333 -0.833333 0
-0.833333 -1 0
-0.819444 -1 0
-0.805556 -1 0
-0.791667 -1 0
-0.833333 -0.986111 0
-0.819444 -0.986111 0
-0.805556 -0.986111 0
-0.791667 -0.986111 0
-0.833333 -0.972222 0
-0.819444 -0.972222 0
-0.805556 -0.972222 0
-0.791667 -0.972222 0
-0.833333 -0.958333 0
-0.819444 -0.958333 0
-0.805556 -0.958333 0
-0.791667 -0.958333 0
-0.791667 -1 0
-0.777778 -1 0
-0.763889 -1 0
-0.75 -1 0
-0.791667 -0.986111 0
-0.777778 -0.986111 0
-0.763889 -0.986111 0
-0.75 -0.986111 0
-0.791667 -0.972222 0
-0.777778 -0.972222 0
-0.763889 -0.972222 0
-0.75 -0.972222 0
-0.791667 -0.958333 0
-0.777778 -0.958333 0
-0.763889 -0.958333 0
-0.75 -0.958333 0
-0.833333 -0.958333 0
-0.819444 -0.958333 0
-0.805556 -0.958333 0
-0.791667 -0.958333 0
-0.833333 -0.944444 0
-0.819444 -0.944444 0
-0.805556 -0.944444 0
-0.791667 -0.944444 0
-0.833333 -0.930556 0
-0.819444 -0.930556 0
-0.805556 -0.930556 0
-0.791667 -0.930556 0
-0.833333 -0.916667 0
-0.819444 -0.916667 0
-0.805556 -0.916667 0
-0.791667 -0.916667 0
-0.791667 -0.958333 0
-0.777778 -0.958333 0
-0.763889 -0.958333 0
-0.75 -0.958333 0
-0.791667 -0.944444 0
-0.777778 -0.944444 0
-0.763889 -0.944444 0
-0.75 -0.944444 0
-0.791667 -0.930556 0
-0.777778 -0.930556 0
-0.763889 -0.930556 0
-0.75 -0.930556 0
-0.791667 -0.916667 0
-0.777778 -0.916667 0
-0.763889 -0.916667 0
-0.75 -0.916667 0
-0.75 -1 0
-0.736111 -1 0
-0.722222 -1 0
-0.708333 -1 0
-0.75 -0.986111 0
-0.736111 -0.986111 0
-0.722222 -0.986111 0
-0.708333 -0.986111 0
-0.75 -0.972222 0
-0.736111 -0.972222 0
-0.722222 -0.972222 0
-0.708333 -0.972222 0
-0.75 -0.958333 0
-0.736111 -0.958333 0
-0.722222 -0.958333 0
-0.708333 -0.958333 0
-0.708333 -1 0
-0.694444 -1 0
-0.680556 -1 0
-0.666667 -1 0
-0.708333 -0.986111 0
-0.694444 -0.986111 0
-0.680556 -0.986111 0
-0.666667 -0.986111 0
-0.708333 -0.972222 0
-0.694444 -0.972222 0
-0.680556 -0.972222 0
-0.666667 -0.972222 0
-0.708333 -0.958333 0
-0.694444 -0.958333 0
-0.680556 -0.958333 0
-0.666667 -0.958333 0
-0.75 -0.958333 0
-0.736111 -0.958333 0
-0.722222 -0.958333 0
-0.708333 -0.958333 0
-0.75 -0.944444 0
-0.736111 -0.944444 0
-0.722222 -0.944444 0
-0.708333 -0.944444 0
-0.75 -0.930556 0
-0.736111 -0.930556 0
-0.722222 -0.930556 0
-0.708333 -0.930556 0
-0.75 -0.916667 0
-0.736111 -0.916667 0
-0.722222 -0.916667 0
-0.708333 -0.916667 0
-0.708333 -0.958333 0
-0.694444 -0.958333 0
-0.680556 -0.958333 0
-0.666667 -0.958333 0
-0.708333 -0.944444 0
-0.694444 -0.944444 0
-0.680556 -0.944444 0
-0.666667 -0.944444 0
-0.708333 -0.930556 0
-0.694444 -0.930556 0
-0.680556 -0.930556 0
-0.666667 -0.930556 0
-0.708333 -0.916667 0
-0.694444 -0.916667 0
-0.680556 -0.916667 0
-0.666667 -0.916667 0
-0.833333 -0.916667 0
-0.819444 -0.916667 0
-0.805556 -0.916667 0
-0.791667 -0.916667 0
-0.833333 -0.902778 0
-0.819444 -0.902778 0
-0.805556 -0.902778 0
-0.791667 -0.902778 0
-0.833333 -0.888889 0
-0.819444 -0.888889 0
-0.805556 -0.888889 0
-0.791667 -0.888889 0
-0.833333 -0.875 0
-0.819444 -0.875 0
-0.805556 -0.875 0
-0.791667 -0.875 0
-0.791667 -0.916667 0
-0.777778 -0.916667 0
-0.763889 -0.916667 0
-0.75 -0.916667 0
-0.791667 -0.902778 0
-0.777778 -0.902778 0
-0.763889 -0.902778 0
-0.75 -0.902778 0
-0.791667 -0.888889 0
-0.777778 -0.888889 0
-0.763889 -0.888889 0
-0.75 -0.888889 0
-0.791667 -0.875 0
-0.777778 -0.875 0
-0.763889 -0.875 0
-0.75 -0.875 0
-0.833333 -0.875 0
-0.819444 -0.875 0
-0.805556 -0.875 0
-0.791667 -0.875 0
-0.833333 -0.861111 0
-0.819444 -0.861111 0
-0.805556 -0.861111 0
-0.791667 -0.861111 0
-0.833333 -0.847222 0
-0.819444 -0.847222 0
-0.805556 -0.847222 0
-0.791667 -0.847222 0
-0.833333 -0.833333 0
-0.819444 -0.833333 0
-0.805556 -0.833333 0
-0.791667 -0.833333 0
-0.791667 -0.875 0
-0.777778 -0.875 0
-0.763889 -0.875 0
-0.75 -0.875 0
-0.791667 -0.861111 0
-0.777778 -0.861111 0
-0.763889 -0.861111 0
-0.75 -0.861111 0
-0.791667 -0.847222 0
-0.777778 -0.847222 0
-0.763889 -0.847222 0
-0.75 -0.847222 0
-0.791667 -0.833333 0
-0.777778 -0.833333 0
-0.763889 -0.833333 0
-0.75 -0.833333 0
-0.75 -0.916667 0
-0.736111 -0.916667 0
-0.722222 -0.916667 0
-0.708333 -0.916667 0
-0.75 -0.902778 0
-0.736111 -0.902778 0
-0.722222 -0.902778 0
-0.708333 -0.902778 0
-0.75 -0.888889 0
-0.736111 -0.888889 0
-0.722222 -0.888889 0
-0.708333 -0.888889 0
-0.75 -0.875 0
-0.736111 -0.875 0
-0.722222 -0.875 0
-0.708333 -0.875 0
-0.708333 -0.916667 0
-0.694444 -0.916667 0
-0.680556 -0.916667 0
-0.666667 -0.916667 0
-0.708333 -0.902778 0
-0.694444 -0.902778 0
-0.680556 -0.902778 0
-0.666667 -0.902778 0
-0.708333 -0.888889 0
-0.694444 -0.888889 0
-0.680556 -0.888889 0
-0.666667 -0.888889 0
-0.708333 -0.875 0
-0.694444 -0.875 0
-0.680556 -0.875 0
[...]
POINT_DATA 36864
VECTORS gradient double
-0.000370373 -0.000370418 0
-0.000507679 -0.000521916 0
-0.000688111 -0.000728032 0
-0.00092244 -0.0010055 0
-0.000521947 -0.000507701 0
-0.000714659 -0.000714653 0
-0.000968299 -0.000997149 0
-0.00129794 -0.00137665 0
-0.000728017 -0.000688114 0
-0.000997139 -0.000968302 0
-0.00135123 -0.00135123 0
-0.00181137 -0.00186523 0
-0.00100557 -0.000922417 0
-0.00137666 -0.00129794 0
-0.00186523 -0.00181135 0
-0.00250028 -0.00250028 0
-0.000922578 -0.00100549 0
-0.0012241 -0.00137599 0
-0.00160691 -0.00186453 0
-0.00208667 -0.00250195 0
-0.00129812 -0.00137722 0
-0.00172226 -0.00188419 0
-0.00226086 -0.00255341 0
-0.00293593 -0.0034259 0
-0.00181162 -0.0018663 0
-0.00240353 -0.00255308 0
-0.00315519 -0.00346 0
-0.00409732 -0.00464206 0
-0.00250062 -0.00250187 0
-0.00331756 -0.00342243 0
-0.00435506 -0.00463824 0
-0.00565552 -0.00622276 0
-0.00100545 -0.000922558 0
-0.0013772 -0.00129812 0
-0.0018663 -0.00181161 0
-0.00250188 -0.00250063 0
-0.00137602 -0.00122408 0
-0.0018842 -0.00172227 0
-0.00255308 -0.00240352 0
-0.00342244 -0.00331758 0
-0.00186453 -0.00160689 0
-0.0025534 -0.00226087 0
-0.00345999 -0.00315518 0
-0.00463826 -0.00435509 0
-0.002502 -0.00208663 0
-0.00342591 -0.00293594 0
-0.00464206 -0.0040973 0
-0.00622277 -0.00565555 0
-0.00250222 -0.00250221 0
-0.00331976 -0.0034229 0
-0.00435795 -0.00463888 0
-0.00565925 -0.00622361 0
-0.0034229 -0.00331974 0
-0.00454117 -0.00454118 0
-0.00596133 -0.00615443 0
-0.00774145 -0.00825685 0
-0.00463889 -0.00435793 0
-0.00615443 -0.00596134 0
-0.00807912 -0.00807911 0
-0.0104916 -0.010839 0
-0.00622361 -0.00565922 0
-0.00825683 -0.00774145 0
-0.010839 -0.0104916 0
-0.0140757 -0.0140757 0
-0.00208699 -0.00250194 0
-0.0026812 -0.00332584 0
-0.00340781 -0.00437807 0
-0.00428413 -0.00570762 0
-0.00293633 -0.00342604 0
-0.00377244 -0.00455441 0
-0.00479485 -0.00599521 0
-0.00602792 -0.007816 0
-0.00409784 -0.00464233 0
-0.00526468 -0.00617138 0
-0.00669147 -0.00812366 0
-0.00841223 -0.010591 0
-0.00565621 -0.00622316 0
-0.00726685 -0.00827295 0
-0.00923631 -0.0108901 0
-0.0116116 -0.0141977 0
-0.00428462 -0.00570765 0
-0.00532678 -0.00737026 0
-0.00655008 -0.00942531 0
-0.00796457 -0.0119377 0
-0.0060285 -0.00781504 0
-0.00749513 -0.010093 0
-0.0092165 -0.0129063 0
-0.0112068 -0.0163479 0
-0.00841297 -0.0105892 0
-0.0104598 -0.0136765 0
-0.0128619 -0.0174883 0
-0.0156393 -0.0221523 0
-0.0116125 -0.014195 0
-0.0144379 -0.018334 0
-0.0177538 -0.0234438 0
-0.0215875 -0.0296965 0
-0.00565994 -0.00622401 0
-0.00727158 -0.00827407 0
-0.00924226 -0.0108915 0
-0.011619 -0.0141996 0
-0.00774237 -0.0082574 0
-0.00994703 -0.0109772 0
-0.0126428 -0.0144498 0
-0.0158941 -0.0188385 0
-0.0104929 -0.0108397 0
-0.0134807 -0.0144101 0
-0.0171342 -0.0189686 0
-0.0215404 -0.0247299 0
-0.0140773 -0.0140766 0
-0.0180859 -0.0187132 0
-0.0229875 -0.0246329 0
-0.0288989 -0.0321146 0
-0.0116199 -0.0141969 0
-0.014447 -0.0183364 0
-0.0177649 -0.0234469 0
-0.0216008 -0.0297005 0
-0.0158954 -0.0188349 0
-0.0197628 -0.0243269 0
-0.0243015 -0.0311068 0
-0.029549 -0.0394034 0
-0.0215421 -0.0247252 0
-0.0267834 -0.0319347 0
-0.0329345 -0.0408349 0
-0.040046 -0.0517261 0
-0.0289012 -0.0321085 0
-0.0359331 -0.0414708 0
-0.0441856 -0.0530289 0
-0.0537266 -0.0671724 0
-0.00250197 -0.00208696 0
-0.00342604 -0.00293635 0
-0.00464232 -0.00409783 0
-0.00622317 -0.00565625 0
-0.00332585 -0.00268115 0
-0.0045544 -0.00377246 0
-0.00617137 -0.00526466 0
-0.00827297 -0.00726689 0
-0.0043781 -0.00340776 0
-0.0059952 -0.00479487 0
-0.00812365 -0.00669145 0
-0.0108901 -0.00923636 0
-0.00570763 -0.00428407 0
-0.00781599 -0.00602795 0
-0.010591 -0.00841221 0
-0.0141977 -0.0116116 0
-0.00622401 -0.00565992 0
-0.00825738 -0.00774239 0
-0.0108397 -0.0104929 0
-0.0140766 -0.0140773 0
-0.00827409 -0.00727156 0
-0.0109772 -0.00994704 0
-0.0144101 -0.0134807 0
-0.0187132 -0.0180859 0
-0.0108915 -0.00924223 0
-0.0144498 -0.0126429 0
-0.0189686 -0.0171342 0
-0.024633 -0.0229875 0
-0.0141996 -0.0116189 0
-0.0188385 -0.0158941 0
-0.0247299 -0.0215404 0
-0.0321146 -0.028899 0
-0.0057078 -0.00428459 0
-0.00781508 -0.00602855 0
-0.0105892 -0.00841296 0
-0.014195 -0.0116126 0
-0.00737024 -0.00532671 0
-0.0100929 -0.00749515 0
-0.0136765 -0.0104597 0
-0.018334 -0.014438 0
-0.0094254 -0.00654999 0
-0.0129064 -0.00921652 0
-0.0174883 -0.0128619 0
-0.0234438 -0.0177539 0
-0.0119376 -0.00796451 0
-0.0163479 -0.0112069 0
-0.0221523 -0.0156392 0
-0.0296966 -0.0215876 0
-0.0141969 -0.0116199 0
-0.0188348 -0.0158954 0
-0.0247251 -0.0215421 0
-0.0321084 -0.0289013 0
-0.0183365 -0.014447 0
-0.0243269 -0.0197628 0
-0.0319347 -0.0267834 0
-0.0414709 -0.0359332 0
-0.0234469 -0.0177648 0
-0.0311068 -0.0243016 0
-0.0408348 -0.0329344 0
-0.0530288 -0.0441856 0
-0.0297005 -0.0216008 0
-0.0394035 -0.0295491 0
-0.0517262 -0.040046 0
-0.0671726 -0.0537267 0
-0.0140782 -0.0140783 0
-0.0180871 -0.0187154 0
-0.0229889 -0.0246358 0
-0.0289008 -0.0321183 0
-0.0187154 -0.0180871 0
-0.0240446 -0.0240446 0
-0.0305611 -0.0316509 0
-0.0384201 -0.0412641 0
-0.0246358 -0.022989 0
-0.0316509 -0.0305611 0
-0.0402288 -0.0402288 0
-0.050574 -0.0524473 0
-0.0321183 -0.0289008 0
-0.0412641 -0.0384201 0
-0.0524473 -0.050574 0
-0.0659345 -0.0659345 0
-0.0289031 -0.0321122 0
-0.0359354 -0.0414756 0
-0.0441884 -0.0530349 0
-0.0537299 -0.06718 0
-0.0384231 -0.0412563 0
-0.0477718 -0.0532859 0
-0.0587431 -0.0681368 0
-0.0714273 -0.0863098 0
-0.0505779 -0.0524375 0
-0.062884 -0.0677271 0
-0.077326 -0.086603 0
-0.0940228 -0.109701 0
-0.0659396 -0.0659223 0
-0.0819835 -0.0851436 0
-0.100812 -0.108874 0
-0.12258 -0.137911 0
-0.0321121 -0.0289031 0
-0.0412562 -0.0384232 0
-0.0524373 -0.050578 0
-0.0659221 -0.0659396 0
-0.0414756 -0.0359354 0
-0.053286 -0.0477718 0
-0.0677272 -0.062884 0
-0.0851437 -0.0819834 0
-0.0530348 -0.0441884 0
-0.0681368 -0.058743 0
-0.0866029 -0.077326 0
-0.108874 -0.100812 0
-0.0671801 -0.05373 0
-0.0863099 -0.0714273 0
-0.109701 -0.0940229 0
-0.137911 -0.12258 0
-0.0659272 -0.0659275 0
-0.0819682 -0.0851503 0
-0.100793 -0.108882 0
-0.122557 -0.137922 0
-0.0851502 -0.0819684 0
-0.105868 -0.105868 0
-0.130182 -0.135374 0
-0.158292 -0.17148 0
-0.108882 -0.100793 0
-0.135374 -0.130182 0
-0.166464 -0.166465 0
-0.202408 -0.210862 0
-0.137922 -0.122558 0
-0.17148 -0.158291 0
-0.210862 -0.202409 0
-0.256392 -0.256392 0
-0.00796505 -0.0119378 0
-0.00957383 -0.0149749 0
-0.0113769 -0.0186041 0
-0.0133633 -0.0228917 0
-0.0112073 -0.0163453 0
-0.0134715 -0.0205067 0
-0.0160088 -0.0254749 0
-0.0188038 -0.0313485 0
-0.0156399 -0.0221474 0
-0.0187997 -0.0277876 0
-0.0223405 -0.0345188 0
-0.0262406 -0.0424791 0
-0.0215884 -0.0296893 0
-0.0259503 -0.0372509 0
-0.030838 -0.0462742 0
-0.0362215 -0.0569461 0
-0.0133634 -0.0228919 0
-0.0155081 -0.0278961 0
-0.017781 -0.0336685 0
-0.0201373 -0.0402466 0
-0.0188038 -0.0313445 0
-0.0218223 -0.0382003 0
-0.0250209 -0.0461027 0
-0.0283364 -0.0551136 0
-0.0262405 -0.0424715 0
-0.0304531 -0.0517631 0
-0.0349167 -0.06247 0
-0.039543 -0.0746817 0
-0.0362214 -0.0569349 0
-0.0420366 -0.0693918 0
-0.0481981 -0.0837446 0
-0.0545842 -0.100116 0
-0.0216017 -0.0296932 0
-0.0259662 -0.0372558 0
-0.0308567 -0.0462803 0
-0.0362432 -0.0569536 0
-0.0295502 -0.0393936 0
-0.0355208 -0.049427 0
-0.042211 -0.0613995 0
-0.0495797 -0.0755598 0
-0.0400475 -0.0517132 0
-0.0481391 -0.0648843 0
-0.0572058 -0.0806009 0
-0.067192 -0.0991897 0
-0.0537286 -0.0671557 0
-0.0645847 -0.08426 0
-0.076749 -0.10467 0
-0.0901467 -0.12881 0
-0.0362431 -0.0569423 0
-0.0420617 -0.0694008 0
-0.0482267 -0.0837555 0
-0.0546163 -0.100129 0
-0.0495795 -0.0755445 0
-0.0575394 -0.0920733 0
-0.0659731 -0.111117 0
-0.074714 -0.13284 0
-0.0671917 -0.0991695 0
-0.0779793 -0.120867 0
-0.0894088 -0.145867 0
-0.101255 -0.174383 0
-0.0901463 -0.128784 0
-0.104619 -0.156961 0
-0.119954 -0.189426 0
-0.135847 -0.226458 0
-0.0201365 -0.0402468 0
-0.0225139 -0.0476457 0
-0.0248445 -0.0558648 0
-0.027049 -0.0648748 0
-0.0283354 -0.0551095 0
-0.0316813 -0.0652436 0
-0.034961 -0.0764968 0
-0.038063 -0.0888367 0
-0.0395416 -0.0746742 0
-0.0442108 -0.0884074 0
-0.0487876 -0.103655 0
-0.053116 -0.120377 0
-0.0545823 -0.100105 0
-0.061028 -0.118516 0
-0.0673458 -0.138956 0
-0.0733207 -0.161375 0
-0.0270472 -0.0648749 0
-0.029034 -0.0746112 0
-0.0307089 -0.0849872 0
-0.0319792 -0.0958784 0
-0.0380609 -0.0888353 0
-0.0408568 -0.102167 0
-0.0432139 -0.116375 0
-0.0450015 -0.131288 0
-0.0531132 -0.120375 0
-0.0570147 -0.138439 0
-0.0603039 -0.157692 0
-0.0627985 -0.177899 0
-0.073317 -0.16137 0
-0.0787027 -0.185588 0
-0.0832432 -0.211397 0
-0.0866869 -0.238487 0
-0.0546144 -0.100118 0
-0.0610637 -0.118531 0
-0.067385 -0.138974 0
-0.0733632 -0.161395 0
-0.0747115 -0.132825 0
-0.0835342 -0.157254 0
-0.0921819 -0.184375 0
-0.10036 -0.21412 0
-0.101251 -0.174363 0
-0.113208 -0.206432 0
-0.124927 -0.242034 0
-0.136011 -0.281082 0
-0.135842 -0.226432 0
-0.151884 -0.268077 0
-0.167607 -0.314312 0
-0.182477 -0.365021 0
-0.0733595 -0.161391 0
-0.0787482 -0.185611 0
-0.0832911 -0.211424 0
-0.0867367 -0.238517 0
-0.100355 -0.214115 0
-0.107727 -0.246247 0
-0.113942 -0.280493 0
-0.118655 -0.316436 0
-0.136004 -0.281075 0
-0.145994 -0.323256 0
-0.154417 -0.368211 0
-0.160805 -0.415395 0
-0.182468 -0.365011 0
-0.195871 -0.419789 0
-0.207171 -0.478168 0
-0.215742 -0.539443 0
-0.0537319 -0.0671633 0
-0.0645887 -0.0842695 0
-0.0767536 -0.104682 0
-0.0901521 -0.128824 0
-0.0714299 -0.0862885 0
-0.0858627 -0.108266 0
-0.102034 -0.13449 0
-0.119846 -0.165507 0
-0.0940261 -0.109674 0
-0.113025 -0.137607 0
-0.134312 -0.170939 0
-0.157758 -0.210362 0
-0.122584 -0.137878 0
-0.147353 -0.172994 0
-0.175106 -0.214898 0
-0.205673 -0.264458 0
-0.0901518 -0.128798 0
-0.104626 -0.156978 0
-0.119961 -0.189447 0
-0.135855 -0.226483 0
-0.119845 -0.165474 0
-0.139087 -0.201679 0
-0.159473 -0.243393 0
-0.180601 -0.290975 0
-0.157758 -0.21032 0
-0.183086 -0.256336 0
-0.209922 -0.309356 0
-0.237733 -0.369833 0
-0.205672 -0.264406 0
-0.238693 -0.322255 0
-0.273679 -0.38891 0
-0.309938 -0.464938 0
-0.122562 -0.137888 0
-0.147327 -0.173007 0
-0.175075 -0.214914 0
-0.205636 -0.264478 0
-0.158297 -0.171439 0
-0.190282 -0.215101 0
-0.226121 -0.267206 0
-0.265593 -0.328829 0
-0.202415 -0.210812 0
-0.243316 -0.264501 0
-0.289143 -0.328572 0
-0.339616 -0.404347 0
-0.256401 -0.256332 0
-0.308209 -0.321614 0
-0.366259 -0.399519 0
-0.430192 -0.491655 0
-0.205636 -0.264426 0
-0.238651 -0.322279 0
-0.273631 -0.388938 0
-0.309884 -0.464972 0
-0.265591 -0.328765 0
-0.308233 -0.400695 0
-0.353412 -0.483574 0
-0.400233 -0.578108 0
-0.339614 -0.40427 0
-0.394141 -0.492718 0
-0.451912 -0.594632 0
-0.511783 -0.710875 0
-0.43019 -0.491562 0
-0.49926 -0.599107 0
-0.572437 -0.723026 0
-0.648276 -0.864369 0
-0.13585 -0.226457 0
-0.151893 -0.268106 0
-0.167617 -0.314346 0
-0.182487 -0.36506 0
-0.180595 -0.290942 0
-0.201922 -0.344452 0
-0.222826 -0.403858 0
-0.242594 -0.469013 0
-0.237726 -0.369792 0
-0.265799 -0.437803 0
-0.293315 -0.513309 0
-0.319337 -0.596122 0
-0.309928 -0.464887 0
-0.346528 -0.550387 0
-0.382401 -0.64531 0
-0.416326 -0.749419 0
-0.182479 -0.365051 0
-0.195883 -0.419834 0
-0.207183 -0.47822 0
-0.215754 -0.539501 0
-0.242582 -0.469001 0
-0.260401 -0.539384 0
-0.275424 -0.614396 0
-0.286818 -0.693128 0
-0.319322 -0.596107 0
-0.342778 -0.685565 0
-0.362553 -0.780906 0
-0.377551 -0.880975 0
-0.416306 -0.749401 0
-0.446886 -0.861863 0
-0.472668 -0.981722 0
-0.492221 -1.10752 0
-0.309874 -0.46492 0
-0.346468 -0.550427 0
-0.382336 -0.645357 0
-0.416255 -0.749473 0
-0.40022 -0.578045 0
-0.447484 -0.684356 0
-0.493808 -0.802385 0
-0.537616 -0.931835 0
-0.511767 -0.710799 0
-0.572204 -0.841525 0
-0.631439 -0.986661 0
-0.687457 -1.14584 0
-0.648255 -0.864276 0
-0.72481 -1.02323 0
-0.799843 -1.1997 0
-0.8708 -1.39325 0
-0.416235 -0.749454 0
-0.44681 -0.861925 0
-0.472587 -0.981792 0
-0.492137 -1.1076 0
-0.53759 -0.931812 0
-0.577079 -1.07165 0
-0.610371 -1.22068 0
-0.635621 -1.37711 0
-0.687425 -1.14581 0
-0.73792 -1.31776 0
-0.780492 -1.50102 0
-0.812779 -1.69337 0
-0.870759 -1.39322 0
-0.934721 -1.6023 0
-0.988646 -1.82513 0
-1.02954 -2.05901 0
-0.0119381 -0.00796501 0
-0.0163454 -0.0112074 0
-0.0221474 -0.0156399 0
-0.0296893 -0.0215885 0
-0.0149748 -0.00957371 0
-0.0205066 -0.0134715 0
-0.0277875 -0.0187997 0
-0.037251 -0.0259504 0
-0.0186043 -0.0113768 0
-0.0254749 -0.0160089 0
-0.0345188 -0.0223405 0
-0.0462742 -0.0308381 0
-0.0228915 -0.0133632 0
-0.0313484 -0.0188039 0
-0.0424791 -0.0262406 0
-0.0569463 -0.0362216 0
-0.0296932 -0.0216017 0
-0.0393935 -0.0295502 0
-0.051713 -0.0400475 0
-0.0671555 -0.0537287 0
-0.0372558 -0.0259661 0
-0.049427 -0.0355208 0
-0.0648844 -0.0481391 0
-0.0842601 -0.0645848 0
-0.0462803 -0.0308566 0
-0.0613994 -0.042211 0
-0.0806008 -0.0572058 0
-0.10467 -0.076749 0
-0.0569537 -0.0362432 0
-0.0755599 -0.0495797 0
-0.0991898 -0.067192 0
-0.12881 -0.0901468 0
-0.0228922 -0.0133633 0
-0.0313446 -0.0188039 0
-0.0424715 -0.0262405 0
-0.0569349 -0.0362215 0
-0.027896 -0.015508 0
-0.0382003 -0.0218224 0
-0.0517631 -0.030453 0
-0.0693919 -0.0420367 0
-0.0336687 -0.0177809 0
-0.0461027 -0.025021 0
-0.06247 -0.0349166 0
-0.0837447 -0.0481982 0
-0.0402464 -0.0201373 0
-0.0551134 -0.0283365 0
-0.0746817 -0.039543 0
-0.100116 -0.0545843 0
-0.0569423 -0.0362431 0
-0.0755444 -0.0495796 0
-0.0991693 -0.0671918 0
-0.128784 -0.0901465 0
-0.0694009 -0.0420616 0
-0.0920733 -0.0575394 0
-0.120867 -0.0779792 0
-0.156961 -0.10462 0
-0.0837556 -0.0482266 0
-0.111117 -0.0659731 0
-0.145867 -0.0894088 0
-0.189426 -0.119954 0
-0.100129 -0.0546163 0
-0.13284 -0.0747141 0
-0.174383 -0.101255 0
-0.226458 -0.135847 0
-0.0671631 -0.053732 0
-0.0862883 -0.0714299 0
-0.109674 -0.0940263 0
-0.137878 -0.122584 0
-0.0842695 -0.0645888 0
-0.108266 -0.0858627 0
-0.137607 -0.113025 0
-0.172994 -0.147353 0
-0.104682 -0.0767537 0
-0.13449 -0.102034 0
-0.170939 -0.134312 0
-0.214898 -0.175106 0
-0.128824 -0.0901523 0
-0.165508 -0.119846 0
-0.210362 -0.157758 0
-0.264458 -0.205673 0
-0.137888 -0.122562 0
-0.171438 -0.158297 0
-0.210811 -0.202416 0
-0.256331 -0.256401 0
-0.173007 -0.147327 0
-0.215102 -0.190282 0
-0.264502 -0.243316 0
-0.321614 -0.308209 0
-0.214914 -0.175075 0
-0.267206 -0.226121 0
-0.328572 -0.289143 0
-0.399519 -0.366258 0
-0.264478 -0.205637 0
-0.328829 -0.265593 0
-0.404348 -0.339616 0
-0.491656 -0.430192 0
-0.128798 -0.090152 0
-0.165474 -0.119846 0
-0.21032 -0.157758 0
-0.264406 -0.205672 0
-0.156978 -0.104626 0
-0.201679 -0.139087 0
-0.256337 -0.183086 0
-0.322255 -0.238693 0
-0.189447 -0.119961 0
-0.243393 -0.159473 0
-0.309356 -0.209922 0
-0.388909 -0.273679 0
-0.226483 -0.135855 0
-0.290975 -0.180601 0
-0.369833 -0.237734 0
-0.464938 -0.309938 0
-0.264425 -0.205636 0
-0.328765 -0.265591 0
-0.404269 -0.339615 0
-0.491561 -0.43019 0
-0.322279 -0.238652 0
-0.400695 -0.308233 0
-0.492718 -0.394142 0
-0.599107 -0.499259 0
-0.388938 -0.273632 0
-0.483574 -0.353411 0
-0.594631 -0.451912 0
-0.723026 -0.572437 0
-0.464972 -0.309885 0
-0.578109 -0.400233 0
-0.710876 -0.511784 0
-0.864369 -0.648275 0
-0.0402471 -0.0201365 0
-0.0551096 -0.0283354 0
-0.0746741 -0.0395416 0
-0.100105 -0.0545824 0
-0.0476457 -0.0225138 0
-0.0652436 -0.0316813 0
-0.0884074 -0.0442108 0
-0.118516 -0.0610281 0
-0.055865 -0.0248444 0
-0.0764968 -0.034961 0
-0.103655 -0.0487875 0
-0.138956 -0.0673459 0
-0.0648747 -0.0270489 0
-0.0888366 -0.038063 0
-0.120377 -0.053116 0
-0.161375 -0.0733208 0
-0.100118 -0.0546144 0
-0.132825 -0.0747115 0
-0.174363 -0.101251 0
-0.226432 -0.135842 0
-0.118531 -0.0610636 0
-0.157254 -0.0835342 0
-0.206432 -0.113208 0
-0.268077 -0.151884 0
-0.138974 -0.067385 0
-0.184375 -0.0921819 0
-0.242034 -0.124927 0
-0.314312 -0.167607 0
-0.161395 -0.0733632 0
-0.214121 -0.10036 0
-0.281082 -0.136011 0
-0.365021 -0.182477 0
-0.064875 -0.0270471 0
-0.0888353 -0.0380609 0
-0.120375 -0.0531132 0
-0.161371 -0.0733171 0
-0.0746113 -0.0290339 0
-0.102167 -0.0408568 0
-0.138439 -0.0570147 0
-0.185588 -0.0787028 0
-0.0849873 -0.0307089 0
-0.116375 -0.0432139 0
-0.157692 -0.0603039 0
-0.211397 -0.0832433 0
-0.0958786 -0.0319791 0
-0.131288 -0.0450015 0
-0.177899 -0.0627985 0
-0.238487 -0.0866869 0
-0.161391 -0.0733594 0
-0.214115 -0.100355 0
-0.281075 -0.136004 0
-0.365011 -0.182468 0
-0.185611 -0.0787481 0
-0.246247 -0.107727 0
-0.323256 -0.145994 0
-0.419789 -0.195871 0
-0.211424 -0.0832912 0
-0.280493 -0.113942 0
-0.368211 -0.154417 0
-0.478169 -0.207171 0
-0.238517 -0.0867367 0
-0.316436 -0.118655 0
-0.415395 -0.160805 0
-0.539443 -0.215742 0
-0.226457 -0.13585 0
-0.290942 -0.180595 0
-0.369792 -0.237726 0
-0.464886 -0.309928 0
-0.268106 -0.151893 0
-0.344452 -0.201922 0
-0.437803 -0.265799 0
-0.550387 -0.346528 0
-0.314345 -0.167617 0
-0.403858 -0.222826 0
-0.513309 -0.293315 0
-0.64531 -0.382401 0
-0.36506 -0.182488 0
-0.469013 -0.242594 0
-0.596122 -0.319337 0
-0.749419 -0.416326 0
-0.46492 -0.309874 0
-0.578045 -0.40022 0
-0.710798 -0.511767 0
-0.864276 -0.648254 0
-0.550426 -0.346469 0
-0.684357 -0.447484 0
-0.841525 -0.572204 0
-1.02323 -0.724809 0
-0.645356 -0.382336 0
-0.802385 -0.493808 0
-0.986661 -0.63144 0
-1.1997 -0.799843 0
-0.749472 -0.416255 0
-0.931835 -0.537616 0
-1.14584 -0.687457 0
-1.39325 -0.870799 0
-0.365051 -0.182479 0
-0.469002 -0.242582 0
-0.596107 -0.319322 0
-0.749401 -0.416306 0
-0.419833 -0.195883 0
-0.539384 -0.260401 0
-0.685565 -0.342778 0
-0.861863 -0.446886 0
-0.47822 -0.207184 0
-0.614397 -0.275424 0
-0.780906 -0.362553 0
-0.981722 -0.472667 0
-0.5395 -0.215754 0
-0.693128 -0.286817 0
-0.880975 -0.377551 0
-1.10752 -0.492221 0
-0.749454 -0.416235 0
-0.931813 -0.53759 0
-1.14581 -0.687425 0
-1.39322 -0.870758 0
-0.861924 -0.44681 0
-1.07165 -0.577079 0
-1.31776 -0.73792 0
-1.6023 -0.93472 0
-0.981791 -0.472588 0
-1.22068 -0.610371 0
-1.50102 -0.780492 0
-1.82513 -0.988646 0
-1.1076 -0.492138 0
-1.37711 -0.635621 0
-1.69337 -0.812779 0
-2.05901 -1.02954 0
-0.25634 -0.25634 0
-0.308137 -0.321625 0
-0.366173 -0.399533 0
-0.430093 -0.491671 0
-0.321625 -0.308137 0
-0.386613 -0.386613 0
-0.459429 -0.480264 0
-0.539626 -0.591021 0
-0.399532 -0.366174 0
-0.480264 -0.459429 0
-0.570719 -0.570719 0
-0.670342 -0.702335 0
-0.491672 -0.430093 0
-0.591021 -0.539626 0
-0.702336 -0.670343 0
-0.824933 -0.824933 0
-0.430091 -0.491578 0
-0.499145 -0.599127 0
-0.572307 -0.72305 0
-0.648129 -0.864397 0
-0.539624 -0.590909 0
-0.626264 -0.720189 0
-0.718056 -0.869154 0
-0.813187 -1.03906 0
-0.670339 -0.702204 0
-0.777968 -0.855832 0
-0.891997 -1.03285 0
-1.01017 -1.23476 0
-0.824929 -0.824779 0
-0.957378 -1.00522 0
-1.0977 -1.21315 0
-1.24313 -1.4503 0
-0.491577 -0.430092 0
-0.590909 -0.539624 0
-0.702203 -0.67034 0
-0.824778 -0.824929 0
-0.599126 -0.499146 0
-0.72019 -0.626263 0
-0.855833 -0.777968 0
-1.00522 -0.957377 0
-0.723049 -0.572307 0
-0.869154 -0.718056 0
-1.03285 -0.891997 0
-1.21315 -1.0977 0
-0.864397 -0.64813 0
-1.03906 -0.813187 0
-1.23476 -1.01017 0
-1.4503 -1.24313 0
-0.824774 -0.824776 0
-0.9572 -1.00522 0
-1.0975 -1.21314 0
-1.2429 -1.45029 0
-1.00522 -0.9572 0
-1.16662 -1.16662 0
-1.33761 -1.40792 0
-1.51482 -1.68315 0
-1.21314 -1.0975 0
-1.40792 -1.33761 0
-1.61428 -1.61428 0
-1.82815 -1.92985 0
-1.45029 -1.2429 0
-1.68315 -1.51482 0
-1.92985 -1.82815 0
-2.18552 -2.18552 0
-0.648108 -0.864304 0
-0.724646 -1.02326 0
-0.799664 -1.19974 0
-0.870605 -1.39329 0
-0.813161 -1.03895 0
-0.909191 -1.23003 0
-1.00331 -1.44217 0
-1.09232 -1.67484 0
-1.01014 -1.23463 0
-1.12943 -1.4617 0
-1.24635 -1.71379 0
-1.35692 -1.99028 0
-1.24309 -1.45015 0
-1.38989 -1.71684 0
-1.53378 -2.01295 0
-1.66984 -2.33769 0
-0.870565 -1.39326 0
-0.934513 -1.60235 0
-0.988427 -1.82518 0
-1.02932 -2.05907 0
-1.09227 -1.6748 0
-1.1725 -1.92613 0
-1.24014 -2.194 0
-1.29145 -2.47515 0
-1.35686 -1.99023 0
-1.45653 -2.28891 0
-1.54056 -2.60723 0
-1.60429 -2.94133 0
-1.66976 -2.33764 0
-1.79241 -2.68845 0
-1.89582 -3.06233 0
-1.97425 -3.45475 0
-1.24286 -1.45014 0
-1.38964 -1.71684 0
-1.5335 -2.01294 0
-1.66954 -2.33768 0
-1.51477 -1.68297 0
-1.69366 -1.99249 0
-1.86899 -2.33614 0
-2.03479 -2.71302 0
-1.82809 -1.92965 0