# vtk DataFile Version 3.0
#This file was generated by the deal.II library on 2020/8/22 at 21:53:34
ASCII
DATASET UNSTRUCTURED_GRID

POINTS 416 double
0 0 0
0 0.5 0
0.5 0 0
0.5 0.5 0
0 0 0
0.5 0 0
0 0.5 0
0.5 0.5 0
0.5 0 0
0.5 0.5 0
1 0 0
1 0.5 0
0.5 0 0
1 0 0
0.5 0.5 0
1 0.5 0
0 0.5 0
0 1 0
0.5 0.5 0
0.5 1 0
0 0.5 0
0.5 0.5 0
0 1 0
0.5 1 0
0.5 0.5 0
0.5 1 0
1 0.5 0
1 1 0
0.5 0.5 0
1 0.5 0
0.5 1 0
1 1 0
-1 -0.5 0
-1 -0.25 0
-0.75 -0.5 0
-0.75 -0.25 0
-1 -0.5 0
-0.75 -0.5 0
-1 -0.25 0
-0.75 -0.25 0
-0.75 -0.5 0
-0.75 -0.25 0
-0.5 -0.5 0
-0.5 -0.25 0
-0.75 -0.5 0
-0.5 -0.5 0
-0.75 -0.25 0
-0.5 -0.25 0
-1 -0.25 0
-1 0 0
-0.75 -0.25 0
-0.75 0 0
-1 -0.25 0
-0.75 -0.25 0
-1 0 0
-0.75 0 0
-0.75 -0.25 0
-0.75 0 0
-0.5 -0.25 0
-0.5 0 0
-0.75 -0.25 0
-0.5 -0.25 0
-0.75 0 0
-0.5 0 0
-0.5 -0.5 0
-0.5 -0.25 0
-0.25 -0.5 0
-0.25 -0.25 0
-0.5 -0.5 0
-0.25 -0.5 0
-0.5 -0.25 0
-0.25 -0.25 0
-0.25 -0.5 0
-0.25 -0.25 0
0 -0.5 0
0 -0.25 0
-0.25 -0.5 0
0 -0.5 0
-0.25 -0.25 0
0 -0.25 0
-0.5 -0.25 0
-0.5 0 0
-0.25 -0.25 0
-0.25 0 0
-0.5 -0.25 0
-0.25 -0.25 0
-0.5 0 0
-0.25 0 0
-0.25 -0.25 0
-0.25 0 0
0 -0.25 0
0 0 0
-0.25 -0.25 0
0 -0.25 0
-0.25 0 0
0 0 0
-1 0 0
-1 0.25 0
-0.75 0 0
-0.75 0.25 0
-1 0 0
-0.75 0 0
-1 0.25 0
-0.75 0.25 0
-0.75 0 0
-0.75 0.25 0
-0.5 0 0
-0.5 0.25 0
-0.75 0 0
-0.5 0 0
-0.75 0.25 0
-0.5 0.25 0
-1 0.25 0
-1 0.5 0
-0.75 0.25 0
-0.75 0.5 0
-1 0.25 0
-0.75 0.25 0
-1 0.5 0
-0.75 0.5 0
-0.75 0.25 0
-0.75 0.5 0
-0.5 0.25 0
-0.5 0.5 0
-0.75 0.25 0
-0.5 0.25 0
-0.75 0.5 0
-0.5 0.5 0
-0.5 0 0
-0.5 0.25 0
-0.25 0 0
-0.25 0.25 0
-0.5 0 0
-0.25 0 0
-0.5 0.25 0
-0.25 0.25 0
-0.25 0 0
-0.25 0.25 0
0 0 0
0 0.25 0
-0.25 0 0
0 0 0
-0.25 0.25 0
0 0.25 0
-0.5 0.25 0
-0.5 0.5 0
-0.25 0.25 0
-0.25 0.5 0
-0.5 0.25 0
-0.25 0.25 0
-0.5 0.5 0
-0.25 0.5 0
-0.25 0.25 0
-0.25 0.5 0
0 0.25 0
0 0.5 0
-0.25 0.25 0
0 0.25 0
-0.25 0.5 0
0 0.5 0
-1 -1 0
-1 -0.75 0
-0.75 -1 0
-0.75 -0.75 0
-1 -1 0
-0.75 -1 0
-1 -0.75 0
-0.75 -0.75 0
-0.75 -1 0
-0.75 -0.75 0
-0.5 -1 0
-0.5 -0.75 0
-0.75 -1 0
-0.5 -1 0
-0.75 -0.75 0
-0.5 -0.75 0
-1 -0.75 0
-1 -0.5 0
-0.75 -0.75 0
-0.75 -0.5 0
-1 -0.75 0
-0.75 -0.75 0
-1 -0.5 0
-0.75 -0.5 0
-0.75 -0.75 0
-0.75 -0.5 0
-0.5 -0.75 0
-0.5 -0.5 0
-0.75 -0.75 0
-0.5 -0.75 0
-0.75 -0.5 0
-0.5 -0.5 0
-0.5 -1 0
-0.5 -0.75 0
-0.25 -1 0
-0.25 -0.75 0
-0.5 -1 0
-0.25 -1 0
-0.5 -0.75 0
-0.25 -0.75 0
-0.25 -1 0
-0.25 -0.75 0
0 -1 0
0 -0.75 0
-0.25 -1 0
0 -1 0
-0.25 -0.75 0
0 -0.75 0
-0.5 -0.75 0
-0.5 -0.5 0
-0.25 -0.75 0
-0.25 -0.5 0
-0.5 -0.75 0
-0.25 -0.75 0
-0.5 -0.5 0
-0.25 -0.5 0
-0.25 -0.75 0
-0.25 -0.5 0
0 -0.75 0
0 -0.5 0
-0.25 -0.75 0
0 -0.75 0
-0.25 -0.5 0
0 -0.5 0
0 -1 0
0 -0.75 0
0.25 -1 0
0.25 -0.75 0
0 -1 0
0.25 -1 0
0 -0.75 0
0.25 -0.75 0
0.25 -1 0
0.25 -0.75 0
0.5 -1 0
0.5 -0.75 0
0.25 -1 0
0.5 -1 0
0.25 -0.75 0
0.5 -0.75 0
0 -0.75 0
0 -0.5 0
0.25 -0.75 0
0.25 -0.5 0
0 -0.75 0
0.25 -0.75 0
0 -0.5 0
0.25 -0.5 0
0.25 -0.75 0
0.25 -0.5 0
0.5 -0.75 0
0.5 -0.5 0
0.25 -0.75 0
0.5 -0.75 0
0.25 -0.5 0
0.5 -0.5 0
0.5 -1 0
0.5 -0.75 0
0.75 -1 0
0.75 -0.75 0
0.5 -1 0
0.75 -1 0
0.5 -0.75 0
0.75 -0.75 0
0.75 -1 0
0.75 -0.75 0
1 -1 0
1 -0.75 0
0.75 -1 0
1 -1 0
0.75 -0.75 0
1 -0.75 0
0.5 -0.75 0
0.5 -0.5 0
0.75 -0.75 0
0.75 -0.5 0
0.5 -0.75 0
0.75 -0.75 0
0.5 -0.5 0
0.75 -0.5 0
0.75 -0.75 0
0.75 -0.5 0
1 -0.75 0
1 -0.5 0
0.75 -0.75 0
1 -0.75 0
0.75 -0.5 0
1 -0.5 0
0 -0.5 0
0 -0.25 0
0.25 -0.5 0
0.25 -0.25 0
0 -0.5 0
0.25 -0.5 0
0 -0.25 0
0.25 -0.25 0
0.25 -0.5 0
0.25 -0.25 0
0.5 -0.5 0
0.5 -0.25 0
0.25 -0.5 0
0.5 -0.5 0
0.25 -0.25 0
0.5 -0.25 0
0 -0.25 0
0 0 0
0.25 -0.25 0
0.25 0 0
0 -0.25 0
0.25 -0.25 0
0 0 0
0.25 0 0
0.25 -0.25 0
0.25 0 0
0.5 -0.25 0
0.5 0 0
0.25 -0.25 0
0.5 -0.25 0
0.25 0 0
0.5 0 0
0.5 -0.5 0
0.5 -0.25 0
0.75 -0.5 0
0.75 -0.25 0
0.5 -0.5 0
0.75 -0.5 0
0.5 -0.25 0
0.75 -0.25 0
0.75 -0.5 0
0.75 -0.25 0
1 -0.5 0
1 -0.25 0
0.75 -0.5 0
1 -0.5 0
0.75 -0.25 0
1 -0.25 0
0.5 -0.25 0
0.5 0 0
0.75 -0.25 0
0.75 0 0
0.5 -0.25 0
0.75 -0.25 0
0.5 0 0
0.75 0 0
0.75 -0.25 0
0.75 0 0
1 -0.25 0
1 0 0
0.75 -0.25 0
1 -0.25 0
0.75 0 0
1 0 0
-1 0.5 0
-1 0.75 0
-0.75 0.5 0
-0.75 0.75 0
-1 0.5 0
-0.75 0.5 0
-1 0.75 0
-0.75 0.75 0
-0.75 0.5 0
-0.75 0.75 0
-0.5 0.5 0
-0.5 0.75 0
-0.75 0.5 0
-0.5 0.5 0
-0.75 0.75 0
-0.5 0.75 0
-1 0.75 0
-1 1 0
-0.75 0.75 0
-0.75 1 0
-1 0.75 0
-0.75 0.75 0
-1 1 0
-0.75 1 0
-0.75 0.75 0
-0.75 1 0
-0.5 0.75 0
-0.5 1 0
-0.75 0.75 0
-0.5 0.75 0
-0.75 1 0
-0.5 1 0
-0.5 0.5 0
-0.5 0.75 0
-0.25 0.5 0
-0.25 0.75 0
-0.5 0.5 0
-0.25 0.5 0
-0.5 0.75 0
-0.25 0.75 0
-0.25 0.5 0
-0.25 0.75 0
0 0.5 0
0 0.75 0
-0.25 0.5 0
0 0.5 0
-0.25 0.75 0
0 0.75 0
-0.5 0.75 0
-0.5 1 0
-0.25 0.75 0
-0.25 1 0
-0.5 0.75 0
-0.25 0.75 0
-0.5 1 0
-0.25 1 0
-0.25 0.75 0
-0.25 1 0
0 0.75 0
0 1 0
-0.25 0.75 0
0 0.75 0
-0.25 1 0
0 1 0

CELLS 208 624
2	0	1
2	2	3
2	4	5
2	6	7
2	8	9
2	10	11
2	12	13
2	14	15
2	16	17
2	18	19
2	20	21
2	22	23
2	24	25
2	26	27
2	28	29
2	30	31
2	32	33
2	34	35
2	36	37
2	38	39
2	40	41
2	42	43
2	44	45
2	46	47
2	48	49
2	50	51
2	52	53
2	54	55
2	56	57
2	58	59
2	60	61
2	62	63
2	64	65
2	66	67
2	68	69
2	70	71
2	72	73
2	74	75
2	76	77
2	78	79
2	80	81
2	82	83
2	84	85
2	86	87
2	88	89
2	90	91
2	92	93
2	94	95
2	96	97
2	98	99
2	100	101
2	102	103
2	104	105
2	106	107
2	108	109
2	110	111
2	112	113
2	114	115
2	116	117
2	118	119
2	120	121
2	122	123
2	124	125
2	126	127
2	128	129
2	130	131
2	132	133
2	134	135
2	136	137
2	138	139
2	140	141
2	142	143
2	144	145
2	146	147
2	148	149
2	150	151
2	152	153
2	154	155
2	156	157
2	158	159
2	160	161
2	162	163
2	164	165
2	166	167
2	168	169
2	170	171
2	172	173
2	174	175
2	176	177
2	178	179
2	180	181
2	182	183
2	184	185
2	186	187
2	188	189
2	190	191
2	192	193
2	194	195
2	196	197
2	198	199
2	200	201
2	202	203
2	204	205
2	206	207
2	208	209
2	210	211
2	212	213
2	214	215
2	216	217
2	218	219
2	220	221
2	222	223
2	224	225
2	226	227
2	228	229
2	230	231
2	232	233
2	234	235
2	236	237
2	238	239
2	240	241
2	242	243
2	244	245
2	246	247
2	248	249
2	250	251
2	252	253
2	254	255
2	256	257
2	258	259
2	260	261
2	262	263
2	264	265
2	266	267
2	268	269
2	270	271
2	272	273
2	274	275
2	276	277
2	278	279
2	280	281
2	282	283
2	284	285
2	286	287
2	288	289
2	290	291
2	292	293
2	294	295
2	296	297
2	298	299
2	300	301
2	302	303
2	304	305
2	306	307
2	308	309
2	310	311
2	312	313
2	314	315
2	316	317
2	318	319
2	320	321
2	322	323
2	324	325
2	326	327
2	328	329
2	330	331
2	332	333
2	334	335
2	336	337
2	338	339
2	340	341
2	342	343
2	344	345
2	346	347
2	348	349
2	350	351
2	352	353
2	354	355
2	356	357
2	358	359
2	360	361
2	362	363
2	364	365
2	366	367
2	368	369
2	370	371
2	372	373
2	374	375
2	376	377
2	378	379
2	380	381
2	382	383
2	384	385
2	386	387
2	388	389
2	390	391
2	392	393
2	394	395
2	396	397
2	398	399
2	400	401
2	402	403
2	404	405
2	406	407
2	408	409
2	410	411
2	412	413
2	414	415

CELL_TYPES 208
 3 3 3 3 3 3 3 3 3 3 3 3 3 3 3 3 3 3 3 3 3 3 3 3 3 3 3 3 3 3 3 3 3 3 3 3 3 3 3 3 3 3 3 3 3 3 3 3 3 3 3 3 3 3 3 3 3 3 3 3 3 3 3 3 3 3 3 3 3 3 3 3 3 3 3 3 3 3 3 3 3 3 3 3 3 3 3 3 3 3 3 3 3 3 3 3 3 3 3 3 3 3 3 3 3 3 3 3 3 3 3 3 3 3 3 3 3 3 3 3 3 3 3 3 3 3 3 3 3 3 3 3 3 3 3 3 3 3 3 3 3 3 3 3 3 3 3 3 3 3 3 3 3 3 3 3 3 3 3 3 3 3 3 3 3 3 3 3 3 3 3 3 3 3 3 3 3 3 3 3 3 3 3 3 3 3 3 3 3 3 3 3 3 3 3 3 3 3 3 3 3 3 3 3 3 3 3 3
POINT_DATA 416
SCALARS u_hat double 1
LOOKUP_TABLE default
0.326644 0.252542 0.188907 0.103053 0.327935 0.206732 0.225642 0.0996219 0.188907 0.103053 1.0917e-06 -2.925e-07 0.207811 -0.00541771 0.0978148 0.0015913 0.254344 -0.00727338 0.101419 -0.000780987 0.225642 0.0996219 1.0917e-06 -2.925e-07 0.101419 -0.000780987 5.59588e-16 -1.49941e-16 0.0978148 0.0015913 5.59588e-16 -1.49941e-16 0.743317 0.548018 2.02811 0.321246 0.837272 1.0597 0.667439 0.532025 2.02811 0.321246 6.11098 0.41095 0.485638 6.11549 0.286311 1.9755 0.585597 0.52199 0.54334 0.547817 0.667439 0.532025 0.528167 0.471111 0.54334 0.547817 0.992619 0.64947 0.286311 1.9755 0.422788 0.572425 6.11098 0.41095 1.90497 0.192316 6.10529 0.343238 1.97564 0.180197 1.90497 0.192316 0.509321 0.304633 0.928789 0.584277 0.425016 0.434047 0.992619 0.64947 0.426198 0.463608 1.97564 0.180197 0.571472 0.333157 0.426198 0.463608 0.35358 0.350871 0.425016 0.434047 0.382271 0.349808 0.52216 0.377357 0.546665 0.398673 0.528167 0.471111 0.454556 0.390878 0.546665 0.398673 0.646722 0.862721 0.422788 0.572425 0.158566 1.82937 0.342912 0.344963 0.182517 1.72298 0.454556 0.390878 0.46373 0.772063 0.182517 1.72298 0.276761 5.88892 0.158566 1.82937 0.195125 5.89502 0.646722 0.862721 0.463594 0.335705 0.571472 0.333157 1.83743 0.0987402 0.463594 0.335705 0.326644 0.289593 0.382271 0.349808 0.33183 0.361891 0.276761 5.88892 0.090572 1.73719 1.83743 0.0987402 5.89092 0.172809 0.090572 1.73719 0.289593 0.252542 0.33183 0.361891 0.748478 0.394491 0.584538 0.611328 0.544072 0.536525 0.555989 0.469127 0.675747 0.53303 0.544072 0.536525 0.625421 0.962735 0.438412 0.510838 0.321154 1.90711 0.570138 0.741489 0.308171 2.02344 0.675747 0.53303 0.837272 1.0597 0.308171 2.02344 0.384897 6.11523 0.321154 1.90711 0.485638 6.11549 0.625421 0.962735 0.479049 0.431689 0.506925 0.370401 1.91075 0.222969 0.479049 0.431689 0.41912 0.378985 0.404354 0.416637 0.438607 0.454434 0.384897 6.11523 0.198393 1.8976 1.91075 0.222969 6.10529 0.343238 0.198393 1.8976 0.329617 0.510826 0.438607 0.454434 0.928789 0.584277 0.41912 0.378985 0.423409 0.317163 0.416422 0.344209 0.455488 0.32769 0.423409 0.317163 0.461386 0.73388 0.306999 0.36714 0.105865 1.69998 0.329617 0.510826 0.0705902 1.79793 0.455488 0.32769 0.586663 0.814151 0.0705902 1.79793 0.159523 5.83345 0.105865 1.69998 0.232717 5.8273 0.461386 0.73388 0.186454 0.116979 0.366209 0.0747885 1.69591 -0.112993 0.186454 0.116979 -0.000213178 0.00104074 0.1175 0.0136324 0.116721 0.0666426 0.159523 5.83345 -0.0938843 1.53122 1.69591 -0.112993 5.8315 0.0108487 -0.0938843 1.53122 0.00134806 0.00872153 0.116721 0.0666426 0.587503 0.159912 0.509321 0.304633 1.79783 0.0411274 0.586663 0.814151 0.433787 0.288448 1.79783 0.0411274 5.82299 0.098286 0.232717 5.8273 0.055275 1.65402 0.35358 0.350871 0.284795 0.339029 0.433787 0.288448 0.327935 0.267334 0.284795 0.339029 0.677789 0.351792 0.055275 1.65402 0.267334 0.206732 5.82299 0.098286 1.53546 -0.106712 5.8315 0.0108487 1.64643 -0.129932 1.53546 -0.106712 0.00872153 0.00134806 0.587503 0.159912 0.103163 0.0675933 0.677789 0.351792 0.108403 0.165452 1.64643 -0.129932 0.207811 0.101197 0.108403 0.165452 0.00104074 -0.000213178 0.103163 0.0675933 0.101197 -0.00541771 0.347644 0.122064 1.7182 -0.0476 0.46373 0.772063 0.221605 0.162544 1.7182 -0.0476 5.89792 0.0831221 0.195125 5.89502 -0.0658083 1.6104 0.148525 0.0138663 0.16318 0.0648619 0.221605 0.162544 -0.000213178 0.00104074 0.16318 0.0648619 0.653826 0.166871 -0.0658083 1.6104 0.00134806 0.00872153 5.89792 0.0831221 1.73665 -0.108714 5.89092 0.172809 1.6149 -0.0787454 1.73665 -0.108714 0.254344 0.123535 0.748478 0.394491 0.142064 0.189953 0.653826 0.166871 0.137837 0.077288 1.6149 -0.0787454 0.00872153 0.00134806 0.137837 0.077288 0.123535 -0.00727338 0.142064 0.189953 0.00104074 -0.000213178 
