# vtk DataFile Version 3.0
#This file was generated by the deal.II library on 2020/8/22 at 21:53:34
ASCII
DATASET UNSTRUCTURED_GRID

POINTS 2912 double
0.5 0.5 0
0.5 1 0
1 0.5 0
1 1 0
0.5 0.5 0
1 0.5 0
0.5 1 0
1 1 0
-1 -0.25 0
-1 0 0
-0.75 -0.25 0
-0.75 0 0
-1 -0.25 0
-0.75 -0.25 0
-1 0 0
-0.75 0 0
-0.25 -0.25 0
-0.25 0 0
0 -0.25 0
0 0 0
-0.25 -0.25 0
0 -0.25 0
-0.25 0 0
0 0 0
-1 0 0
-1 0.25 0
-0.75 0 0
-0.75 0.25 0
-1 0 0
-0.75 0 0
-1 0.25 0
-0.75 0.25 0
-0.25 0 0
-0.25 0.25 0
0 0 0
0 0.25 0
-0.25 0 0
0 0 0
-0.25 0.25 0
0 0.25 0
-1 -1 0
-1 -0.75 0
-0.75 -1 0
-0.75 -0.75 0
-1 -1 0
-0.75 -1 0
-1 -0.75 0
-0.75 -0.75 0
-0.25 -1 0
-0.25 -0.75 0
0 -1 0
0 -0.75 0
-0.25 -1 0
0 -1 0
-0.25 -0.75 0
0 -0.75 0
0 -1 0
0 -0.75 0
0.25 -1 0
0.25 -0.75 0
0 -1 0
0.25 -1 0
0 -0.75 0
0.25 -0.75 0
0.75 -1 0
0.75 -0.75 0
1 -1 0
1 -0.75 0
0.75 -1 0
1 -1 0
0.75 -0.75 0
1 -0.75 0
0 -0.25 0
0 0 0
0.25 -0.25 0
0.25 0 0
0 -0.25 0
0.25 -0.25 0
0 0 0
0.25 0 0
0.75 -0.25 0
0.75 0 0
1 -0.25 0
1 0 0
0.75 -0.25 0
1 -0.25 0
0.75 0 0
1 0 0
-1 0.75 0
-1 1 0
-0.75 0.75 0
-0.75 1 0
-1 0.75 0
-0.75 0.75 0
-1 1 0
-0.75 1 0
-0.25 0.75 0
-0.25 1 0
0 0.75 0
0 1 0
-0.25 0.75 0
0 0.75 0
-0.25 1 0
0 1 0
0 0 0
0 0.25 0
0.25 0 0
0.25 0.25 0
0 0 0
0.25 0 0
0 0.25 0
0.25 0.25 0
0.25 0 0
0.25 0.25 0
0.5 0 0
0.5 0.25 0
0.25 0 0
0.5 0 0
0.25 0.25 0
0.5 0.25 0
0 0.25 0
0 0.5 0
0.25 0.25 0
0.25 0.5 0
0 0.25 0
0.25 0.25 0
0 0.5 0
0.25 0.5 0
0.25 0.25 0
0.25 0.5 0
0.5 0.25 0
0.5 0.5 0
0.25 0.25 0
0.5 0.25 0
0.25 0.5 0
0.5 0.5 0
0.5 0 0
0.5 0.25 0
0.75 0 0
0.75 0.25 0
0.5 0 0
0.75 0 0
0.5 0.25 0
0.75 0.25 0
0.75 0 0
0.75 0.25 0
1 0 0
1 0.25 0
0.75 0 0
1 0 0
0.75 0.25 0
1 0.25 0
0.5 0.25 0
0.5 0.5 0
0.75 0.25 0
0.75 0.5 0
0.5 0.25 0
0.75 0.25 0
0.5 0.5 0
0.75 0.5 0
0.75 0.25 0
0.75 0.5 0
1 0.25 0
1 0.5 0
0.75 0.25 0
1 0.25 0
0.75 0.5 0
1 0.5 0
0 0.5 0
0 0.75 0
0.25 0.5 0
0.25 0.75 0
0 0.5 0
0.25 0.5 0
0 0.75 0
0.25 0.75 0
0.25 0.5 0
0.25 0.75 0
0.5 0.5 0
0.5 0.75 0
0.25 0.5 0
0.5 0.5 0
0.25 0.75 0
0.5 0.75 0
0 0.75 0
0 1 0
0.25 0.75 0
0.25 1 0
0 0.75 0
0.25 0.75 0
0 1 0
0.25 1 0
0.25 0.75 0
0.25 1 0
0.5 0.75 0
0.5 1 0
0.25 0.75 0
0.5 0.75 0
0.25 1 0
0.5 1 0
-1 -0.5 0
-1 -0.375 0
-0.875 -0.5 0
-0.875 -0.375 0
-1 -0.5 0
-0.875 -0.5 0
-1 -0.375 0
-0.875 -0.375 0
-1 -0.375 0
-1 -0.25 0
-0.875 -0.375 0
-0.875 -0.25 0
-1 -0.375 0
-0.875 -0.375 0
-1 -0.25 0
-0.875 -0.25 0
-0.875 -0.375 0
-0.875 -0.25 0
-0.75 -0.375 0
-0.75 -0.25 0
-0.875 -0.375 0
-0.75 -0.375 0
-0.875 -0.25 0
-0.75 -0.25 0
-0.75 -0.375 0
-0.75 -0.25 0
-0.625 -0.375 0
-0.625 -0.25 0
-0.75 -0.375 0
-0.625 -0.375 0
-0.75 -0.25 0
-0.625 -0.25 0
-0.375 -0.375 0
-0.375 -0.25 0
-0.25 -0.375 0
-0.25 -0.25 0
-0.375 -0.375 0
-0.25 -0.375 0
-0.375 -0.25 0
-0.25 -0.25 0
-0.125 -0.5 0
-0.125 -0.375 0
0 -0.5 0
0 -0.375 0
-0.125 -0.5 0
0 -0.5 0
-0.125 -0.375 0
0 -0.375 0
-0.25 -0.375 0
-0.25 -0.25 0
-0.125 -0.375 0
-0.125 -0.25 0
-0.25 -0.375 0
-0.125 -0.375 0
-0.25 -0.25 0
-0.125 -0.25 0
-0.125 -0.375 0
-0.125 -0.25 0
0 -0.375 0
0 -0.25 0
-0.125 -0.375 0
0 -0.375 0
-0.125 -0.25 0
0 -0.25 0
-0.75 0.25 0
-0.75 0.375 0
-0.625 0.25 0
-0.625 0.375 0
-0.75 0.25 0
-0.625 0.25 0
-0.75 0.375 0
-0.625 0.375 0
-0.5 0 0
-0.5 0.125 0
-0.375 0 0
-0.375 0.125 0
-0.5 0 0
-0.375 0 0
-0.5 0.125 0
-0.375 0.125 0
-0.375 0 0
-0.375 0.125 0
-0.25 0 0
-0.25 0.125 0
-0.375 0 0
-0.25 0 0
-0.375 0.125 0
-0.25 0.125 0
-0.375 0.125 0
-0.375 0.25 0
-0.25 0.125 0
-0.25 0.25 0
-0.375 0.125 0
-0.25 0.125 0
-0.375 0.25 0
-0.25 0.25 0
-0.375 0.25 0
-0.375 0.375 0
-0.25 0.25 0
-0.25 0.375 0
-0.375 0.25 0
-0.25 0.25 0
-0.375 0.375 0
-0.25 0.375 0
-0.75 -0.75 0
-0.75 -0.625 0
-0.625 -0.75 0
-0.625 -0.625 0
-0.75 -0.75 0
-0.625 -0.75 0
-0.75 -0.625 0
-0.625 -0.625 0
-0.375 -0.75 0
-0.375 -0.625 0
-0.25 -0.75 0
-0.25 -0.625 0
-0.375 -0.75 0
-0.25 -0.75 0
-0.375 -0.625 0
-0.25 -0.625 0
0.25 -0.75 0
0.25 -0.625 0
0.375 -0.75 0
0.375 -0.625 0
0.25 -0.75 0
0.375 -0.75 0
0.25 -0.625 0
0.375 -0.625 0
0.625 -0.75 0
0.625 -0.625 0
0.75 -0.75 0
0.75 -0.625 0
0.625 -0.75 0
0.75 -0.75 0
0.625 -0.625 0
0.75 -0.625 0
0.25 -0.375 0
0.25 -0.25 0
0.375 -0.375 0
0.375 -0.25 0
0.25 -0.375 0
0.375 -0.375 0
0.25 -0.25 0
0.375 -0.25 0
0.625 -0.375 0
0.625 -0.25 0
0.75 -0.375 0
0.75 -0.25 0
0.625 -0.375 0
0.75 -0.375 0
0.625 -0.25 0
0.75 -0.25 0
-0.75 0.625 0
-0.75 0.75 0
-0.625 0.625 0
-0.625 0.75 0
-0.75 0.625 0
-0.625 0.625 0
-0.75 0.75 0
-0.625 0.75 0
-0.375 0.625 0
-0.375 0.75 0
-0.25 0.625 0
-0.25 0.75 0
-0.375 0.625 0
-0.25 0.625 0
-0.375 0.75 0
-0.25 0.75 0
-0.75 -0.25 0
-0.75 -0.125 0
-0.625 -0.25 0
-0.625 -0.125 0
-0.75 -0.25 0
-0.625 -0.25 0
-0.75 -0.125 0
-0.625 -0.125 0
-0.75 -0.125 0
-0.75 0 0
-0.625 -0.125 0
-0.625 0 0
-0.75 -0.125 0
-0.625 -0.125 0
-0.75 0 0
-0.625 0 0
-0.625 -0.125 0
-0.625 0 0
-0.5 -0.125 0
-0.5 0 0
-0.625 -0.125 0
-0.5 -0.125 0
-0.625 0 0
-0.5 0 0
-0.375 -0.25 0
-0.375 -0.125 0
-0.25 -0.25 0
-0.25 -0.125 0
-0.375 -0.25 0
-0.25 -0.25 0
-0.375 -0.125 0
-0.25 -0.125 0
-0.5 -0.125 0
-0.5 0 0
-0.375 -0.125 0
-0.375 0 0
-0.5 -0.125 0
-0.375 -0.125 0
-0.5 0 0
-0.375 0 0
-0.375 -0.125 0
-0.375 0 0
-0.25 -0.125 0
-0.25 0 0
-0.375 -0.125 0
-0.25 -0.125 0
-0.375 0 0
-0.25 0 0
-1 0.25 0
-1 0.375 0
-0.875 0.25 0
-0.875 0.375 0
-1 0.25 0
-0.875 0.25 0
-1 0.375 0
-0.875 0.375 0
-0.875 0.25 0
-0.875 0.375 0
-0.75 0.25 0
-0.75 0.375 0
-0.875 0.25 0
-0.75 0.25 0
-0.875 0.375 0
-0.75 0.375 0
-1 0.375 0
-1 0.5 0
-0.875 0.375 0
-0.875 0.5 0
-1 0.375 0
-0.875 0.375 0
-1 0.5 0
-0.875 0.5 0
-0.25 0.25 0
-0.25 0.375 0
-0.125 0.25 0
-0.125 0.375 0
-0.25 0.25 0
-0.125 0.25 0
-0.25 0.375 0
-0.125 0.375 0
-0.125 0.25 0
-0.125 0.375 0
0 0.25 0
0 0.375 0
-0.125 0.25 0
0 0.25 0
-0.125 0.375 0
0 0.375 0
-0.125 0.375 0
-0.125 0.5 0
0 0.375 0
0 0.5 0
-0.125 0.375 0
0 0.375 0
-0.125 0.5 0
0 0.5 0
-0.75 -1 0
-0.75 -0.875 0
-0.625 -1 0
-0.625 -0.875 0
-0.75 -1 0
-0.625 -1 0
-0.75 -0.875 0
-0.625 -0.875 0
-0.625 -1 0
-0.625 -0.875 0
-0.5 -1 0
-0.5 -0.875 0
-0.625 -1 0
-0.5 -1 0
-0.625 -0.875 0
-0.5 -0.875 0
-0.75 -0.875 0
-0.75 -0.75 0
-0.625 -0.875 0
-0.625 -0.75 0
-0.75 -0.875 0
-0.625 -0.875 0
-0.75 -0.75 0
-0.625 -0.75 0
-0.5 -1 0
-0.5 -0.875 0
-0.375 -1 0
-0.375 -0.875 0
-0.5 -1 0
-0.375 -1 0
-0.5 -0.875 0
-0.375 -0.875 0
-0.375 -1 0
-0.375 -0.875 0
-0.25 -1 0
-0.25 -0.875 0
-0.375 -1 0
-0.25 -1 0
-0.375 -0.875 0
-0.25 -0.875 0
-0.375 -0.875 0
-0.375 -0.75 0
-0.25 -0.875 0
-0.25 -0.75 0
-0.375 -0.875 0
-0.25 -0.875 0
-0.375 -0.75 0
-0.25 -0.75 0
0.25 -1 0
0.25 -0.875 0
0.375 -1 0
0.375 -0.875 0
0.25 -1 0
0.375 -1 0
0.25 -0.875 0
0.375 -0.875 0
0.375 -1 0
0.375 -0.875 0
0.5 -1 0
0.5 -0.875 0
0.375 -1 0
0.5 -1 0
0.375 -0.875 0
0.5 -0.875 0
0.25 -0.875 0
0.25 -0.75 0
0.375 -0.875 0
0.375 -0.75 0
0.25 -0.875 0
0.375 -0.875 0
0.25 -0.75 0
0.375 -0.75 0
0 -0.75 0
0 -0.625 0
0.125 -0.75 0
0.125 -0.625 0
0 -0.75 0
0.125 -0.75 0
0 -0.625 0
0.125 -0.625 0
0.125 -0.75 0
0.125 -0.625 0
0.25 -0.75 0
0.25 -0.625 0
0.125 -0.75 0
0.25 -0.75 0
0.125 -0.625 0
0.25 -0.625 0
0 -0.625 0
0 -0.5 0
0.125 -0.625 0
0.125 -0.5 0
0 -0.625 0
0.125 -0.625 0
0 -0.5 0
0.125 -0.5 0
0.75 -0.75 0
0.75 -0.625 0
0.875 -0.75 0
0.875 -0.625 0
0.75 -0.75 0
0.875 -0.75 0
0.75 -0.625 0
0.875 -0.625 0
0.875 -0.75 0
0.875 -0.625 0
1 -0.75 0
1 -0.625 0
0.875 -0.75 0
1 -0.75 0
0.875 -0.625 0
1 -0.625 0
0.875 -0.625 0
0.875 -0.5 0
1 -0.625 0
1 -0.5 0
0.875 -0.625 0
1 -0.625 0
0.875 -0.5 0
1 -0.5 0
0 -0.5 0
0 -0.375 0
0.125 -0.5 0
0.125 -0.375 0
0 -0.5 0
0.125 -0.5 0
0 -0.375 0
0.125 -0.375 0
0 -0.375 0
0 -0.25 0
0.125 -0.375 0
0.125 -0.25 0
0 -0.375 0
0.125 -0.375 0
0 -0.25 0
0.125 -0.25 0
0.125 -0.375 0
0.125 -0.25 0
0.25 -0.375 0
0.25 -0.25 0
0.125 -0.375 0
0.25 -0.375 0
0.125 -0.25 0
0.25 -0.25 0
0.25 -0.25 0
0.25 -0.125 0
0.375 -0.25 0
0.375 -0.125 0
0.25 -0.25 0
0.375 -0.25 0
0.25 -0.125 0
0.375 -0.125 0
0.25 -0.125 0
0.25 0 0
0.375 -0.125 0
0.375 0 0
0.25 -0.125 0
0.375 -0.125 0
0.25 0 0
0.375 0 0
0.375 -0.125 0
0.375 0 0
0.5 -0.125 0
0.5 0 0
0.375 -0.125 0
0.5 -0.125 0
0.375 0 0
0.5 0 0
0.875 -0.5 0
0.875 -0.375 0
1 -0.5 0
1 -0.375 0
0.875 -0.5 0
1 -0.5 0
0.875 -0.375 0
1 -0.375 0
0.75 -0.375 0
0.75 -0.25 0
0.875 -0.375 0
0.875 -0.25 0
0.75 -0.375 0
0.875 -0.375 0
0.75 -0.25 0
0.875 -0.25 0
0.875 -0.375 0
0.875 -0.25 0
1 -0.375 0
1 -0.25 0
0.875 -0.375 0
1 -0.375 0
0.875 -0.25 0
1 -0.25 0
0.625 -0.25 0
0.625 -0.125 0
0.75 -0.25 0
0.75 -0.125 0
0.625 -0.25 0
0.75 -0.25 0
0.625 -0.125 0
0.75 -0.125 0
0.5 -0.125 0
0.5 0 0
0.625 -0.125 0
0.625 0 0
0.5 -0.125 0
0.625 -0.125 0
0.5 0 0
0.625 0 0
0.625 -0.125 0
0.625 0 0
0.75 -0.125 0
0.75 0 0
0.625 -0.125 0
0.75 -0.125 0
0.625 0 0
0.75 0 0
-1 0.5 0
-1 0.625 0
-0.875 0.5 0
-0.875 0.625 0
-1 0.5 0
-0.875 0.5 0
-1 0.625 0
-0.875 0.625 0
-1 0.625 0
-1 0.75 0
-0.875 0.625 0
-0.875 0.75 0
-1 0.625 0
-0.875 0.625 0
-1 0.75 0
-0.875 0.75 0
-0.875 0.625 0
-0.875 0.75 0
-0.75 0.625 0
-0.75 0.75 0
-0.875 0.625 0
-0.75 0.625 0
-0.875 0.75 0
-0.75 0.75 0
-0.75 0.75 0
-0.75 0.875 0
-0.625 0.75 0
-0.625 0.875 0
-0.75 0.75 0
-0.625 0.75 0
-0.75 0.875 0
-0.625 0.875 0
-0.75 0.875 0
-0.75 1 0
-0.625 0.875 0
-0.625 1 0
-0.75 0.875 0
-0.625 0.875 0
-0.75 1 0
-0.625 1 0
-0.625 0.875 0
-0.625 1 0
-0.5 0.875 0
-0.5 1 0
-0.625 0.875 0
-0.5 0.875 0
-0.625 1 0
-0.5 1 0
-0.125 0.5 0
-0.125 0.625 0
0 0.5 0
0 0.625 0
-0.125 0.5 0
0 0.5 0
-0.125 0.625 0
0 0.625 0
-0.25 0.625 0
-0.25 0.75 0
-0.125 0.625 0
-0.125 0.75 0
-0.25 0.625 0
-0.125 0.625 0
-0.25 0.75 0
-0.125 0.75 0
-0.125 0.625 0
-0.125 0.75 0
0 0.625 0
0 0.75 0
-0.125 0.625 0
0 0.625 0
-0.125 0.75 0
0 0.75 0
-0.375 0.75 0
-0.375 0.875 0
-0.25 0.75 0
-0.25 0.875 0
-0.375 0.75 0
-0.25 0.75 0
-0.375 0.875 0
-0.25 0.875 0
-0.5 0.875 0
-0.5 1 0
-0.375 0.875 0
-0.375 1 0
-0.5 0.875 0
-0.375 0.875 0
-0.5 1 0
-0.375 1 0
-0.375 0.875 0
-0.375 1 0
-0.25 0.875 0
-0.25 1 0
-0.375 0.875 0
-0.25 0.875 0
-0.375 1 0
-0.25 1 0
-0.75 0 0
-0.75 0.125 0
-0.625 0 0
-0.625 0.125 0
-0.75 0 0
-0.625 0 0
-0.75 0.125 0
-0.625 0.125 0
-0.625 0 0
-0.625 0.125 0
-0.5 0 0
-0.5 0.125 0
-0.625 0 0
-0.5 0 0
-0.625 0.125 0
-0.5 0.125 0
-0.75 0.125 0
-0.75 0.25 0
-0.625 0.125 0
[...]
POINT_DATA 2912
SCALARS u_hat double 1
LOOKUP_TABLE default
-0.00207741 -1.41374e-05 5.59588e-16 -1.49941e-16 -0.00206056 -4.21254e-05 5.59588e-16 -1.49941e-16 -0.0307865 0.00630353 0.102002 -0.027061 -0.0276946 0.0995723 0.00619487 -0.0269328 0.103526 -0.0229474 -0.0243436 0.0106566 0.103852 -0.0222815 -0.025048 0.0106885 0.00557493 -0.0260862 -0.0250417 0.104747 0.00619487 -0.0269328 -0.0239542 0.102845 -0.0231214 0.107667 0.00371455 -0.0123716 -0.025048 0.0106885 0.107255 -0.01784 0.00386378 -0.0321765 -0.0281671 0.100275 0.00301792 -0.0279881 -0.029162 0.0991415 -0.0246244 0.101681 0.009012 -0.0245327 -0.0268411 0.00831384 0.103563 -0.0226374 0.009012 -0.0245327 -0.0214213 0.10527 0.00903303 -0.0245235 -0.0246552 0.107735 -0.0185148 0.110198 -0.000213178 0.00104074 -0.0208577 0.0129474 0.111798 -0.0148131 -0.0243436 0.0106566 0.108418 -0.0178836 -0.0223314 0.108369 0.00375902 -0.012135 0.113889 -0.0173878 0.00104074 -0.000213178 0.112119 -0.0137879 -0.0100363 0.00623826 -0.0208344 0.0114789 0.110143 -0.0145961 -0.021361 0.109953 -0.000213178 0.00104074 0.111202 -0.0138064 -0.0103549 0.00671347 0.112776 -0.0171085 0.00104074 -0.000213178 0.00371455 -0.0123716 -0.00547963 -0.00191835 0.00375902 -0.012135 -0.00557771 -0.00188722 -0.00547963 -0.00191835 -0.00372618 0.00153397 -0.000518436 0.00762964 -0.00386144 -0.00318608 -0.000619526 0.00779078 -0.00385872 -0.00312603 -0.00557771 -0.00188722 -0.00339104 0.00146077 -0.00385872 -0.00312603 -0.00306205 -0.00207891 -0.00386144 -0.00318608 -0.0030435 -0.00207589 -0.00372618 0.00153397 -0.00392479 7.36243e-05 0.00779858 0.00103062 -0.0031722 -0.00181185 -0.00392479 7.36243e-05 5.02742e-06 -1.29564e-06 -0.0100363 0.00623826 -0.00158523 0.000153996 -0.00306205 -0.00207891 -0.00163436 -0.0010607 -0.0031722 -0.00181185 -0.00206056 -0.00105134 -0.00163436 -0.0010607 1.05362e-09 -2.80547e-10 -0.00158523 0.000153996 -0.00105134 -4.21254e-05 0.00799055 0.00106374 -0.00311121 -0.00186195 -0.00339104 0.00146077 -0.0038609 -4.80167e-05 -0.00311121 -0.00186195 -0.00207741 -0.00104577 -0.0030435 -0.00207589 -0.00168551 -0.00104927 -0.0103549 0.00671347 -0.00182141 0.000322567 -0.0038609 -4.80167e-05 5.02742e-06 -1.29564e-06 -0.00182141 0.000322567 -0.00104577 -1.41374e-05 -0.00168551 -0.00104927 1.05362e-09 -2.80547e-10 -0.00651549 -0.0104387 0.121839 0.0755028 0.0233529 0.0379953 0.014467 0.024797 -0.00310149 -0.0117573 0.0760117 0.00483066 0.014467 0.024797 -0.0276946 0.0359388 0.0760117 0.00483066 0.594037 0.100105 0.0458193 0.467314 0.0359388 0.0995723 0.594037 0.100105 1.80428 0.4538 0.450652 1.80584 0.0969122 0.597739 1.80868 0.453558 0.600506 0.100502 1.80873 0.45354 0.600543 0.0998097 0.126786 0.0801417 0.00984975 0.00146276 0.0473331 0.0307659 0.0335792 0.0200414 0.600506 0.100502 0.0829857 0.00747135 0.470935 0.0504051 0.103852 0.0407851 0.0829857 0.00747135 0.00915526 -0.0060459 0.0335792 0.0200414 0.0407851 -0.0222815 0.102523 0.599846 0.455975 1.81166 0.100411 0.599893 0.455493 1.81296 0.0291496 0.0476014 0.0188751 0.03443 0.00823915 0.000312803 0.12705 0.0809666 0.0188751 0.03443 -0.0231214 0.0422727 0.00799749 -0.00673573 0.0838166 0.00895247 0.0512272 0.473778 0.0422727 0.107667 0.0838166 0.00895247 0.603344 0.10412 0.456387 1.8135 0.103523 0.60591 0.603344 0.10412 1.81345 0.458981 0.0978082 0.592651 0.452691 1.80535 0.0994381 0.593204 0.452025 1.80518 0.452419 1.80935 0.0992233 0.598242 0.596771 0.101321 1.80806 0.454326 0.102614 0.603117 0.457832 1.81271 0.105805 0.601233 0.459191 1.81117 0.461768 1.81452 0.110652 0.603505 0.602406 0.108718 1.81474 0.463084 0.605377 0.104362 1.81539 0.459878 0.458448 1.81518 0.105197 0.606286 1.81648 0.463215 0.606437 0.111464 1.81818 0.46213 0.607689 0.108936 0.600465 0.109304 1.81297 0.46223 0.459853 1.81323 0.108063 0.604065 1.81494 0.461747 0.606752 0.107672 1.8132 0.46288 0.604491 0.111213 0.102002 0.0374707 0.46902 0.0461247 0.0969122 0.597739 0.00372871 0.080211 0.0374707 -0.027061 0.0306321 0.0157226 0.00372871 0.080211 -0.0103154 0.00487899 0.0306321 0.0157226 0.0473401 0.0295047 0.0785288 0.119148 -0.00287165 0.00964857 0.46972 0.0488083 0.103526 0.0402892 0.600543 0.0998097 0.0819833 0.00635864 0.0473401 0.0295047 0.0317833 0.0185333 0.118986 0.0809004 0.00823915 0.000312803 0.0317833 0.0185333 0.0402892 -0.0229474 0.0819833 0.00635864 0.00799749 -0.00673573 -0.00783659 0.00152969 0.00841154 0.0808727 -0.0239542 0.0394455 0.0183976 0.0305386 0.00841154 0.0808727 0.102523 0.599846 0.0394455 0.102845 0.0505194 0.47208 -0.00424871 0.0017905 0.0827832 0.121791 0.0183976 0.0305386 0.0316672 0.0463208 0.103523 0.60591 0.0115913 0.0874582 0.107255 0.0447077 0.475132 0.05491 0.0115913 0.0874582 -0.000619526 0.00358562 0.0447077 -0.01784 0.0344147 0.0247658 0.0869107 0.126513 0.00358562 0.00779078 0.0344147 0.0247658 0.0508525 0.0381694 -0.0281671 0.0360541 0.0154484 0.0257025 -0.0112573 -0.00192065 0.00569492 0.0758299 0.0154484 0.0257025 0.0276005 0.0418372 -0.00738209 -0.00221599 0.077646 0.117479 0.0360541 0.100275 0.0447402 0.468779 0.00569492 0.0758299 0.0994381 0.593204 0.0276005 0.0418372 0.0159907 0.0278676 -0.00231364 -0.00668971 0.117308 0.0801135 0.0159907 0.0278676 -0.0246244 0.0385285 -0.000909447 -0.00857219 0.078202 0.00751886 0.0478584 0.469007 0.0385285 0.101681 0.078202 0.00751886 0.596771 0.101321 -0.0214213 0.0419244 0.0223707 0.0323204 -0.00550969 0.00481542 0.0108277 0.0835566 0.0223707 0.0323204 0.0327168 0.0468881 -0.00253622 0.00290309 0.0830433 0.130748 0.0419244 0.10527 0.0533446 0.474494 0.0108277 0.0835566 0.105805 0.601233 -0.00791772 0.00690685 0.00781758 0.083963 -0.0246552 0.04154 0.017755 0.0343931 0.00781758 0.083963 0.102614 0.603117 0.04154 0.107735 0.0498842 0.474413 -0.000838871 0.0112551 0.0822837 0.122547 0.017755 0.0343931 0.0311135 0.0507487 0.110652 0.603505 0.0184111 0.0866279 0.111798 0.0484923 0.479184 0.0557746 0.0184111 0.0866279 0.00142198 0.00510931 0.0484923 -0.0148131 0.0365801 0.0259807 0.0885344 0.127794 0.00546635 0.00810603 0.0365801 0.0259807 0.0524355 0.0387893 0.00984975 0.00146276 0.122388 0.0839407 0.0311135 0.0507487 0.0196907 0.0348544 0.00915526 -0.0060459 0.0850415 0.00909418 0.0196907 0.0348544 -0.0223314 0.0430188 0.0850415 0.00909418 0.605377 0.104362 0.0518485 0.474561 0.0430188 0.108369 0.108418 0.0452674 0.476605 0.055001 0.105197 0.606286 0.012675 0.0872797 0.0452674 -0.0178836 0.0347122 0.0247007 0.012675 0.0872797 -0.000518436 0.0035556 0.0347122 0.0247007 0.0512692 0.0379479 0.087186 0.126956 0.0035556 0.00762964 0.127613 0.0901447 0.00810603 0.00546635 0.0524355 0.0387893 0.0379093 0.0255139 0.606437 0.111464 0.0881572 0.0185119 0.47881 0.0580478 0.112119 0.0491655 0.0881572 0.0185119 0.00510931 0.00142198 0.0379093 0.0255139 0.0491655 -0.0137879 0.479448 0.0556753 0.113889 0.0482508 0.607689 0.108936 0.0885713 0.0160519 0.0512692 0.0379479 0.0372148 0.0246735 0.127022 0.088315 0.00779858 0.0044146 0.0372148 0.0246735 0.0482508 -0.0173878 0.0885713 0.0160519 0.0044146 0.00103062 0.00187921 -0.00167518 0.121958 0.0839927 0.0316672 0.0463208 0.021072 0.0320473 0.00374547 -0.00416947 0.0821543 0.013899 0.021072 0.0320473 -0.021361 0.0442959 0.0821543 0.013899 0.600465 0.109304 0.0510793 0.476026 0.0442959 0.109953 0.110143 0.0477733 0.477377 0.0564879 0.108063 0.604065 0.0167514 0.0877655 0.0477733 -0.0145961 0.0377885 0.0249232 0.0167514 0.0877655 0.00142198 0.00510931 0.0377885 0.0249232 0.0519398 0.0388788 0.0888896 0.127196 0.00546635 0.00810603 0.126626 0.0878804 0.00799055 0.00452714 0.0508525 0.0381694 0.0366281 0.0250645 0.606752 0.107672 0.0889717 0.0148001 0.478024 0.0554185 0.112776 0.0478337 0.0889717 0.0148001 0.00452714 0.00106374 0.0366281 0.0250645 0.0478337 -0.0171085 0.477743 0.0568139 0.111202 0.0486979 0.604491 0.111213 0.0872291 0.0178166 0.0519398 0.0388788 0.0355845 0.0269501 0.12721 0.0889493 0.00810603 0.00546635 0.0355845 0.0269501 0.0486979 -0.0138064 0.0872291 0.0178166 0.00510931 0.00142198 -0.0250417 0.0398528 0.0151 0.02887 -0.0103154 0.00487899 0.007256 0.0855416 0.0151 0.02887 0.0291496 0.0476014 -0.00287165 0.00964857 0.0602359 0.124715 0.0398528 0.104747 0.0884537 0.441092 0.007256 0.0855416 0.100411 0.599893 0.0884537 0.441092 0.0755285 0.70048 0.0602359 0.124715 0.556141 0.891458 -0.0148365 -0.00764319 0.00407178 0.0792748 -0.029162 0.0349898 0.00889027 0.0213014 0.00407178 0.0792748 0.0978082 0.592651 0.0349898 0.0991415 0.0847929 0.434839 -0.0149549 -0.00428499 0.0568248 0.117839 0.00889027 0.0213014 0.0233529 0.0379953 0.0568248 0.117839 0.552293 0.884292 0.0847929 0.434839 0.0714332 0.693992 0.0992233 0.598242 0.00788576 0.0857634 0.103563 0.040463 0.439445 0.0886753 0.00788576 0.0857634 -0.00791772 0.00690685 0.040463 -0.0226374 0.0290908 0.017135 0.554493 0.889267 0.0604623 0.12445 0.439445 0.0886753 0.698287 0.0752629 0.0604623 0.12445 -0.000838871 0.0112551 0.0290908 0.017135 0.0473331 0.0307659 0.0327168 0.0468881 0.0193414 0.0313487 0.00510699 -0.00433549 0.126741 0.0668705 0.0193414 0.0313487 -0.0185148 0.0458415 0.0028967 -0.00370849 0.089304 0.014916 0.080311 0.702511 0.0947588 0.444596 0.126741 0.0668705 0.892819 0.562018 0.0947588 0.444596 0.0458415 0.110198 0.089304 0.014916 0.602406 0.108718 2.74352 2.43878 3.65659 3.29325 2.60101 3.72356 2.35836 3.38243 2.52263 1.75829 3.38089 2.36082 2.35836 3.38243 1.75507 2.52618 3.38089 2.36082 3.72291 2.60165 3.29125 3.66265 2.43758 2.7458 3.66391 3.29313 2.74668 2.43924 3.72317 2.6027 3.38433 2.36131 3.72291 2.60165 3.38427 2.3611 3.6632 3.29331 2.74556 2.43932 3.38427 2.3611 2.52754 1.75864 3.38433 2.36131 2.52762 1.75831 1.76534 2.52854 2.36633 3.38613 1.76475 2.52758 2.3663 3.38702 2.36633 3.38613 2.60689 3.72839 2.44082 2.7523 3.2969 3.66853 2.44578 2.75019 3.29913 3.66334 2.3663 3.38702 2.60851 3.72986 2.60689 3.72839 2.36578 3.38982 2.75086 2.44371 3.66914 3.29863 2.36578 3.38982 1.76309 2.53338 2.53202 1.76341 3.38977 2.36686 3.29881 3.66975 2.44509 2.75234 3.38977 2.36686 3.72946 2.60843 1.76047 2.51994 2.36196 3.38058 1.75882 2.5229 2.36047 3.38099 2.36196 3.38058 2.60292 3.72365 2.43444 2.74943 3.27477 3.68486 2.4321 2.74923 3.27509 3.68386 2.36047 3.38099 2.60101 3.72356 3.27509 3.68386 3.63779 4.03653 3.27477 3.68486 3.63684 4.0369 2.60292 3.72365 2.36169 3.38204 2.74448 2.44115 3.65727 3.29419 2.36169 3.38204 1.76115 2.52367 2.52391 1.76173 3.38119 2.36243 3.29195 3.66331 2.43692 2.74812 3.38119 2.36243 3.72317 2.6027 1.76194 2.53292 2.36592 3.38986 1.76516 2.53019 2.36756 3.38833 2.36592 3.38986 2.60922 3.73165 2.44634 2.75174 3.30069 3.66468 2.44432 2.75242 3.29869 3.66998 2.36756 3.38833 2.60828 3.73025 2.60922 3.73165 2.36928 3.38966 2.75744 2.44091 3.69195 3.28379 2.36928 3.38966 1.76819 2.53209 2.52877 1.76982 3.38932 2.37112 3.64493 4.0449 3.28346 3.69346 3.69195 3.28379 4.04453 3.64644 3.28346 3.69346 2.44364 2.7585 3.38932 2.37112 3.73246 2.61184 2.75219 2.44585 3.67053 3.30056 2.60828 3.73025 2.36763 3.39153 2.53415 1.76477 3.39157 2.36848 2.36763 3.39153 1.76506 2.53477 3.39157 2.36848 3.73109 2.61058 3.30039 3.67182 2.44646 2.75448 3.66587 3.30295 2.75353 2.45014 3.73246 2.61184 3.3914 2.37005 3.73109 2.61058 3.38993 2.37143 3.67101 3.30092 2.75421 2.44775 3.38993 2.37143 2.53285 1.77059 3.3914 2.37005 2.53526 1.7675 2.75514 2.44126 3.69094 3.28208 2.60851 3.72986 2.36831 3.38843 3.69094 3.28208 4.04321 3.6443 3.64392 4.0428 3.28283 3.69098 2.52971 1.76678 3.38838 2.36934 2.36831 3.38843 1.76645 2.53099 3.38838 2.36934 3.73101 2.60967 3.28283 3.69098 2.44258 2.75635 3.66919 3.29889 2.75257 2.4454 3.72946 2.60843 3.38855 2.36863 3.73101 2.60967 3.39007 2.36714 3.66405 3.3009 2.75212 2.4476 3.39007 2.36714 2.534 1.76396 3.38855 2.36863 2.53145 1.76714 0.121839 0.0986708 0.35698 0.307323 0.0714332 0.382712 0.0864292 0.293062 0.35698 0.307323 0.834743 0.737068 0.382712 0.693992 0.328263 0.674195 0.0986708 0.0755028 0.323821 0.222851 0.0864292 0.293062 0.0458193 0.256567 0.323821 0.222851 0.766692 0.512638 0.328263 0.674195 0.256567 0.467314 0.834743 0.737068 1.68533 1.49029 0.770444 1.64472 0.682969 1.49491 1.68533 1.49029 2.74352 2.43878 1.55941 2.74682 1.42173 2.483 0.766692 0.512638 1.54595 1.07191 0.682969 1.49491 0.450652 1.12825 1.54595 1.07191 2.52263 1.75829 1.42173 2.483 1.12825 1.80584 1.80428 1.12904 2.48243 1.42397 1.75507 2.52618 1.06997 1.55115 2.48243 1.42397 2.74741 1.56086 2.43758 2.7458 1.48983 1.6878 1.12904 0.4538 1.49698 0.688426 1.06997 1.55115 0.512322 0.771807 1.49698 0.688426 1.64524 0.770477 1.48983 1.6878 0.741921 0.847861 2.74668 2.43924 1.68904 1.49198 2.74862 1.56163 2.48512 1.42432 1.68904 1.49198 0.839611 0.739656 1.64754 0.774062 1.49776 0.686082 2.52754 1.75864 1.55106 1.07229 2.48512 1.42432 1.80873 1.13113 1.55106 1.07229 0.771835 0.514332 1.49776 0.686082 1.13113 0.45354 2.74741 1.56086 2.48419 1.4248 2.74556 2.43932 1.68756 1.49125 2.48419 1.4248 1.80868 1.13112 2.52762 1.75831 1.55212 1.0722 1.64524 0.770477 1.49884 0.68833 1.68756 1.49125 0.847687 0.742876 1.49884 0.68833 1.13112 0.453558 1.55212 1.0722 0.772376 0.51355 0.839611 0.739656 0.361594 0.311001 0.698287 0.386775 0.678028 0.332284 0.361594 0.311001 0.126786 0.103464 0.386775 0.0752629 0.297486 0.0908731 0.771835 0.514332 0.328959 0.226132 0.678028 0.332284 0.470935 0.26067 0.328959 0.226132 0.103464 0.0801417 0.297486 0.0908731 0.26067 0.0504051 0.455975 1.13382 0.688772 1.50028 0.556141 0.7238 1.08609 1.54306 0.688772 1.50028 0.77626 1.65072 0.7238 0.891458 1.4854 1.69853 1.13382 1.81166 1.42653 2.48705 1.08609 1.54306 1.76475 2.52758 1.42653 2.48705 1.56481 2.7528 1.4854 1.69853 2.44082 2.7523 0.518173 0.773396 1.07866 1.55278 0.455493 1.13423 0.691444 1.50323 1.07866 1.55278 1.76534 2.52854 1.13423 1.81296 1.42893 2.48906 0.747579 0.851042 1.4969 1.69134 0.691444 1.50323 0.774863 1.65089 1.4969 1.69134 2.44578 2.75019 1.42893 2.48906 1.56609 2.75404 0.0755285 0.388004 0.0914128 0.299007 0.12705 0.104008 0.36282 0.312517 0.0914128 0.299007 0.0512272 0.262503 0.104008 0.0809666 0.330478 0.227961 0.388004 0.70048 0.333801 0.680529 0.36282 0.312517 0.841807 0.742152 0.333801 0.680529 0.262503 0.473778 0.330478 0.227961 0.774337 0.517161 0.77626 1.65072 0.688585 1.50124 0.841807 0.742152 1.69222 1.49546 0.688585 1.50124 0.456387 1.13494 0.774337 0.517161 1.55454 1.07609 1.56481 2.7528 1.42781 2.48959 1.69222 1.49546 2.75086 2.44371 1.42781 2.48959 1.13494 1.8135 1.55454 1.07609 2.53202 1.76341 1.76309 2.53338 1.07729 1.55816 1.81345 1.13622 2.48996 1.43085 1.07729 1.55816 0.518973 0.778706 1.13622 0.458981 1.50488 0.694661 2.44509 2.75234 1.49729 1.69457 2.48996 1.43085 2.75419 1.56786 1.49729 1.69457 0.749211 0.85493 1.50488 0.694661 1.65225 0.77772 0.452691 1.12902 0.687906 1.49681 0.514558 0.768678 1.07331 1.54731 0.687906 1.49681 0.769811 1.64553 0.742446 0.846494 1.48994 1.68735 1.12902 1.80535 1.42316 2.48296 1.07331 1.54731 1.75882 2.5229 1.42316 2.48296 1.56072 2.74833 1.48994 1.68735 2.43444 2.74943 0.552293 0.718293 1.08191 1.53647 0.452025 1.1286 0.683116 1.49475 1.08191 1.53647 1.76047 2.51994 1.1286 1.80518 1.42174 2.48046 0.718293 0.884292 1.48065 1.69177 0.683116 1.49475 0.770444 1.64472 1.48065 1.69177 2.4321 2.74923 1.42174 2.48046 1.55941 2.74682 0.769811 1.64553 0.687394 1.49889 0.845994 0.743526 1.68597 1.49257 0.687394 1.49889 0.452419 1.13088 0.769345 0.515091 1.54845 1.07532 1.56072 2.74833 1.4246 2.48442 1.68597 1.49257 2.74448 2.44115 1.4246 2.48442 1.13088 1.80935 1.54845 1.07532 2.52391 1.76173 1.76115 2.52367 1.08348 1.54017 1.80806 1.13119 2.48315 1.42363 1.08348 1.54017 0.554493 0.72188 1.13119 0.454326 1.49739 0.686856 2.43692 2.74812 1.48251 1.69536 2.48315 1.42363 2.74862 1.56163 1.48251 1.69536 0.72188 0.889267 1.49739 0.686856 1.64754 0.774062 0.457832 1.13527 0.690838 1.50262 0.519823 0.774566 1.07893 1.55367 0.690838 1.50262 0.778964 1.65307 0.744941 0.843267 1.49801 1.69369 1.13527 1.81271 1.42944 2.49055 1.07893 1.55367 1.76516 2.53019 1.42944 2.49055 1.56777 2.75502 1.49801 1.69369 2.44634 2.75174 0.517704 0.777034 1.07611 1.55715 0.459191 1.13518 0.693659 1.50299 1.07611 1.55715 1.76194 2.53292 1.13518 1.81117 1.42997 2.48917 0.747149 0.852945 1.49583 1.69367 0.693659 1.50299 0.775566 1.65112 1.49583 1.69367 2.44432 2.75242 1.42997 2.48917 1.56674 2.75404 0.778964 1.65307 0.692249 1.5037 0.892819 0.727419 1.70013 1.48962 0.692249 1.5037 0.461768 1.13814 0.727419 0.562018 1.54544 1.09145 1.56777 2.75502 1.43071 2.48927 1.70013 1.48962 2.75744 2.44091 1.43071 2.48927 1.13814 1.81452 1.54544 1.09145 2.52877 1.76982 1.76819 2.53209 1.08321 1.55697 1.81474 1.13891 2.49217 1.43283 1.08321 1.55697 0.524918 0.778748 1.13891 0.463084 1.50648 0.697995 2.44364 2.7585 1.49961 1.69684 2.49217 1.43283 2.7574 1.57023 1.49961 1.69684 0.752512 0.856352 1.50648 0.697995 1.65502 0.77969 0.852773 0.747831 1.69344 1.49701 0.775566 1.65112 0.693294 1.50461 1.69344 1.49701 2.75219 2.44585 1.56674 2.75404 1.43057 2.49073 0.777335 0.518397 1.5579 1.0779 0.693294 1.50461 0.458448 1.13682 1.5579 1.0779 2.53415 1.76477 1.43057 2.49073 1.13682 1.81518 1.81539 1.13763 2.49232 1.43143 1.76506 2.53477 1.07899 1.5591 2.49232 1.43143 2.75633 1.56912 2.44646 2.75448 1.49857 1.69614 1.13763 0.459878 1.50621 0.695902 1.07899 1.5591 0.520753 0.779457 1.50621 0.695902 1.65397 0.77866 1.49857 1.69614 0.750529 0.856076 2.75353 2.45014 1.69545 1.50194 2.7574 1.57023 2.49338 1.43398 1.69545 1.50194 0.85585 0.753262 1.65502 0.77969 1.50825 0.697155 2.53285 1.77059 1.55781 1.0846 2.49338 1.43398 1.81818 1.14015 1.55781 1.0846 0.779087 0.524796 1.50825 0.697155 1.14015 0.46213 2.75633 1.56912 2.49227 1.43367 2.75421 2.44775 1.69594 1.49981 2.49227 1.43367 1.81648 1.13985 2.53526 1.7675 1.55989 1.08152 1.65397 0.77866 1.5068 0.697327 1.69594 1.49981 0.85599 0.751545 1.5068 0.697327 1.13985 0.463215 1.55989 1.08152 0.780436 0.523043 0.851545 0.748527 1.69271 1.49638 0.774863 1.65089 0.693997 1.50324 1.69271 1.49638 2.75514 2.44126 1.56609 2.75404 1.4296 2.48978 0.77477 0.521731 1.55373 1.08083 0.693997 1.50324 0.459853 1.13654 1.55373 1.08083 2.52971 1.76678 1.4296 2.48978 1.13654 1.81323 1.81297 1.1376 2.48953 1.43292 1.76645 2.53099 1.08157 1.55624 2.48953 1.43292 2.75533 1.56902 2.44258 2.75635 1.49859 1.69517 1.1376 0.46223 1.50543 0.696389 1.08157 1.55624 0.522714 0.778073 1.50543 0.696389 1.65332 0.778768 1.49859 1.69517 0.751199 0.855065 2.75257 2.4454 1.69481 1.49781 2.75419 1.56786 2.49025 1.43196 1.69481 1.49781 0.855099 0.750083 1.65225 0.77772 1.50497 0.696579 2.534 1.76396 1.55914 1.07896 2.49025 1.43196 1.8132 1.13804 1.55914 1.07896 0.779956 0.521384 1.50497 0.696579 1.13804 0.46288 2.75533 1.56902 2.49181 1.43168 2.75212 2.4476 1.69453 1.49974 2.49181 1.43168 1.81494 1.13834 2.53145 1.76714 1.55684 1.08218 1.65332 0.778768 1.5062 0.696804 1.69453 1.49974 0.855082 0.751821 1.5062 0.696804 1.13834 0.461747 1.55684 1.08218 0.778398 0.523715 0.46902 0.257573 0.690311 0.312924 0.512322 0.771807 0.222454 0.323397 0.690311 0.312924 0.773043 0.340144 0.741921 0.847861 0.30472 0.351249 0.257573 0.0461247 0.27853 0.100918 0.222454 0.323397 0.0785288 0.0988385 0.27853 0.100918 0.300835 0.120707 0.30472 0.351249 0.0988385 0.119148 0.773043 0.340144 0.690381 0.314359 0.847687 0.742876 0.351153 0.305724 0.690381 0.314359 0.46972 0.259264 0.772376 0.51355 0.324162 0.224226 0.300835 0.120707 0.279416 0.101954 0.351153 0.305724 0.118986 0.0999434 0.279416 0.101954 0.259264 0.0488083 0.324162 0.224226 0.0999434 0.0809004 0.0827832 0.102287 0.228106 0.325567 0.0505194 0.2613 0.10395 0.282972 0.228106 0.325567 0.518173 0.773396 0.2613 0.47208 0.317547 0.693864 0.102287 0.121791 0.309668 0.354335 0.10395 0.282972 0.123741 0.304955 0.309668 0.354335 0.747579 0.851042 0.317547 0.693864 0.344081 0.777859 0.518973 0.778706 0.23 0.330783 0.475132 0.265021 0.696699 0.321001 0.23 0.330783 0.0869107 0.106712 0.265021 0.05491 0.285939 0.108866 0.749211 0.85493 0.312346 0.358622 0.696699 0.321001 0.780268 0.347644 0.312346 0.358622 0.106712 0.126513 0.285939 0.108866 0.308191 0.128416 0.0447402 0.25676 0.0997475 0.27775 0.077646 0.0975624 0.22348 0.320921 0.099747