# vtk DataFile Version 3.0
#This file was generated by the deal.II library on 2020/8/22 at 21:54:23
ASCII
DATASET UNSTRUCTURED_GRID

POINTS 36864 double
-1 -1 0
-1 -0.986111 0
-1 -0.972222 0
-1 -0.958333 0
-0.958333 -1 0
-0.958333 -0.986111 0
-0.958333 -0.972222 0
-0.958333 -0.958333 0
-1 -1 0
-0.986111 -1 0
-0.972222 -1 0
-0.958333 -1 0
-1 -0.958333 0
-0.986111 -0.958333 0
-0.972222 -0.958333 0
-0.958333 -0.958333 0
-0.958333 -1 0
-0.958333 -0.986111 0
-0.958333 -0.972222 0
-0.958333 -0.958333 0
-0.916667 -1 0
-0.916667 -0.986111 0
-0.916667 -0.972222 0
-0.916667 -0.958333 0
-0.958333 -1 0
-0.944444 -1 0
-0.930556 -1 0
-0.916667 -1 0
-0.958333 -0.958333 0
-0.944444 -0.958333 0
-0.930556 -0.958333 0
-0.916667 -0.958333 0
-1 -0.958333 0
-1 -0.944444 0
-1 -0.930556 0
-1 -0.916667 0
-0.958333 -0.958333 0
-0.958333 -0.944444 0
-0.958333 -0.930556 0
-0.958333 -0.916667 0
-1 -0.958333 0
-0.986111 -0.958333 0
-0.972222 -0.958333 0
-0.958333 -0.958333 0
-1 -0.916667 0
-0.986111 -0.916667 0
-0.972222 -0.916667 0
-0.958333 -0.916667 0
-0.958333 -0.958333 0
-0.958333 -0.944444 0
-0.958333 -0.930556 0
-0.958333 -0.916667 0
-0.916667 -0.958333 0
-0.916667 -0.944444 0
-0.916667 -0.930556 0
-0.916667 -0.916667 0
-0.958333 -0.958333 0
-0.944444 -0.958333 0
-0.930556 -0.958333 0
-0.916667 -0.958333 0
-0.958333 -0.916667 0
-0.944444 -0.916667 0
-0.930556 -0.916667 0
-0.916667 -0.916667 0
-0.916667 -1 0
-0.916667 -0.986111 0
-0.916667 -0.972222 0
-0.916667 -0.958333 0
-0.875 -1 0
-0.875 -0.986111 0
-0.875 -0.972222 0
-0.875 -0.958333 0
-0.916667 -1 0
-0.902778 -1 0
-0.888889 -1 0
-0.875 -1 0
-0.916667 -0.958333 0
-0.902778 -0.958333 0
-0.888889 -0.958333 0
-0.875 -0.958333 0
-0.875 -1 0
-0.875 -0.986111 0
-0.875 -0.972222 0
-0.875 -0.958333 0
-0.833333 -1 0
-0.833333 -0.986111 0
-0.833333 -0.972222 0
-0.833333 -0.958333 0
-0.875 -1 0
-0.861111 -1 0
-0.847222 -1 0
-0.833333 -1 0
-0.875 -0.958333 0
-0.861111 -0.958333 0
-0.847222 -0.958333 0
-0.833333 -0.958333 0
-0.916667 -0.958333 0
-0.916667 -0.944444 0
-0.916667 -0.930556 0
-0.916667 -0.916667 0
-0.875 -0.958333 0
-0.875 -0.944444 0
-0.875 -0.930556 0
-0.875 -0.916667 0
-0.916667 -0.958333 0
-0.902778 -0.958333 0
-0.888889 -0.958333 0
-0.875 -0.958333 0
-0.916667 -0.916667 0
-0.902778 -0.916667 0
-0.888889 -0.916667 0
-0.875 -0.916667 0
-0.875 -0.958333 0
-0.875 -0.944444 0
-0.875 -0.930556 0
-0.875 -0.916667 0
-0.833333 -0.958333 0
-0.833333 -0.944444 0
-0.833333 -0.930556 0
-0.833333 -0.916667 0
-0.875 -0.958333 0
-0.861111 -0.958333 0
-0.847222 -0.958333 0
-0.833333 -0.958333 0
-0.875 -0.916667 0
-0.861111 -0.916667 0
-0.847222 -0.916667 0
-0.833333 -0.916667 0
-1 -0.916667 0
-1 -0.902778 0
-1 -0.888889 0
-1 -0.875 0
-0.958333 -0.916667 0
-0.958333 -0.902778 0
-0.958333 -0.888889 0
-0.958333 -0.875 0
-1 -0.916667 0
-0.986111 -0.916667 0
-0.972222 -0.916667 0
-0.958333 -0.916667 0
-1 -0.875 0
-0.986111 -0.875 0
-0.972222 -0.875 0
-0.958333 -0.875 0
-0.958333 -0.916667 0
-0.958333 -0.902778 0
-0.958333 -0.888889 0
-0.958333 -0.875 0
-0.916667 -0.916667 0
-0.916667 -0.902778 0
-0.916667 -0.888889 0
-0.916667 -0.875 0
-0.958333 -0.916667 0
-0.944444 -0.916667 0
-0.930556 -0.916667 0
-0.916667 -0.916667 0
-0.958333 -0.875 0
-0.944444 -0.875 0
-0.930556 -0.875 0
-0.916667 -0.875 0
-1 -0.875 0
-1 -0.861111 0
-1 -0.847222 0
-1 -0.833333 0
-0.958333 -0.875 0
-0.958333 -0.861111 0
-0.958333 -0.847222 0
-0.958333 -0.833333 0
-1 -0.875 0
-0.986111 -0.875 0
-0.972222 -0.875 0
-0.958333 -0.875 0
-1 -0.833333 0
-0.986111 -0.833333 0
-0.972222 -0.833333 0
-0.958333 -0.833333 0
-0.958333 -0.875 0
-0.958333 -0.861111 0
-0.958333 -0.847222 0
-0.958333 -0.833333 0
-0.916667 -0.875 0
-0.916667 -0.861111 0
-0.916667 -0.847222 0
-0.916667 -0.833333 0
-0.958333 -0.875 0
-0.944444 -0.875 0
-0.930556 -0.875 0
-0.916667 -0.875 0
-0.958333 -0.833333 0
-0.944444 -0.833333 0
-0.930556 -0.833333 0
-0.916667 -0.833333 0
-0.916667 -0.916667 0
-0.916667 -0.902778 0
-0.916667 -0.888889 0
-0.916667 -0.875 0
-0.875 -0.916667 0
-0.875 -0.902778 0
-0.875 -0.888889 0
-0.875 -0.875 0
-0.916667 -0.916667 0
-0.902778 -0.916667 0
-0.888889 -0.916667 0
-0.875 -0.916667 0
-0.916667 -0.875 0
-0.902778 -0.875 0
-0.888889 -0.875 0
-0.875 -0.875 0
-0.875 -0.916667 0
-0.875 -0.902778 0
-0.875 -0.888889 0
-0.875 -0.875 0
-0.833333 -0.916667 0
-0.833333 -0.902778 0
-0.833333 -0.888889 0
-0.833333 -0.875 0
-0.875 -0.916667 0
-0.861111 -0.916667 0
-0.847222 -0.916667 0
-0.833333 -0.916667 0
-0.875 -0.875 0
-0.861111 -0.875 0
-0.847222 -0.875 0
-0.833333 -0.875 0
-0.916667 -0.875 0
-0.916667 -0.861111 0
-0.916667 -0.847222 0
-0.916667 -0.833333 0
-0.875 -0.875 0
-0.875 -0.861111 0
-0.875 -0.847222 0
-0.875 -0.833333 0
-0.916667 -0.875 0
-0.902778 -0.875 0
-0.888889 -0.875 0
-0.875 -0.875 0
-0.916667 -0.833333 0
-0.902778 -0.833333 0
-0.888889 -0.833333 0
-0.875 -0.833333 0
-0.875 -0.875 0
-0.875 -0.861111 0
-0.875 -0.847222 0
-0.875 -0.833333 0
-0.833333 -0.875 0
-0.833333 -0.861111 0
-0.833333 -0.847222 0
-0.833333 -0.833333 0
-0.875 -0.875 0
-0.861111 -0.875 0
-0.847222 -0.875 0
-0.833333 -0.875 0
-0.875 -0.833333 0
-0.861111 -0.833333 0
-0.847222 -0.833333 0
-0.833333 -0.833333 0
-0.833333 -1 0
-0.833333 -0.986111 0
-0.833333 -0.972222 0
-0.833333 -0.958333 0
-0.791667 -1 0
-0.791667 -0.986111 0
-0.791667 -0.972222 0
-0.791667 -0.958333 0
-0.833333 -1 0
-0.819444 -1 0
-0.805556 -1 0
-0.791667 -1 0
-0.833333 -0.958333 0
-0.819444 -0.958333 0
-0.805556 -0.958333 0
-0.791667 -0.958333 0
-0.791667 -1 0
-0.791667 -0.986111 0
-0.791667 -0.972222 0
-0.791667 -0.958333 0
-0.75 -1 0
-0.75 -0.986111 0
-0.75 -0.972222 0
-0.75 -0.958333 0
-0.791667 -1 0
-0.777778 -1 0
-0.763889 -1 0
-0.75 -1 0
-0.791667 -0.958333 0
-0.777778 -0.958333 0
-0.763889 -0.958333 0
-0.75 -0.958333 0
-0.833333 -0.958333 0
-0.833333 -0.944444 0
-0.833333 -0.930556 0
-0.833333 -0.916667 0
-0.791667 -0.958333 0
-0.791667 -0.944444 0
-0.791667 -0.930556 0
-0.791667 -0.916667 0
-0.833333 -0.958333 0
-0.819444 -0.958333 0
-0.805556 -0.958333 0
-0.791667 -0.958333 0
-0.833333 -0.916667 0
-0.819444 -0.916667 0
-0.805556 -0.916667 0
-0.791667 -0.916667 0
-0.791667 -0.958333 0
-0.791667 -0.944444 0
-0.791667 -0.930556 0
-0.791667 -0.916667 0
-0.75 -0.958333 0
-0.75 -0.944444 0
-0.75 -0.930556 0
-0.75 -0.916667 0
-0.791667 -0.958333 0
-0.777778 -0.958333 0
-0.763889 -0.958333 0
-0.75 -0.958333 0
-0.791667 -0.916667 0
-0.777778 -0.916667 0
-0.763889 -0.916667 0
-0.75 -0.916667 0
-0.75 -1 0
-0.75 -0.986111 0
-0.75 -0.972222 0
-0.75 -0.958333 0
-0.708333 -1 0
-0.708333 -0.986111 0
-0.708333 -0.972222 0
-0.708333 -0.958333 0
-0.75 -1 0
-0.736111 -1 0
-0.722222 -1 0
-0.708333 -1 0
-0.75 -0.958333 0
-0.736111 -0.958333 0
-0.722222 -0.958333 0
-0.708333 -0.958333 0
-0.708333 -1 0
-0.708333 -0.986111 0
-0.708333 -0.972222 0
-0.708333 -0.958333 0
-0.666667 -1 0
-0.666667 -0.986111 0
-0.666667 -0.972222 0
-0.666667 -0.958333 0
-0.708333 -1 0
-0.694444 -1 0
-0.680556 -1 0
-0.666667 -1 0
-0.708333 -0.958333 0
-0.694444 -0.958333 0
-0.680556 -0.958333 0
-0.666667 -0.958333 0
-0.75 -0.958333 0
-0.75 -0.944444 0
-0.75 -0.930556 0
-0.75 -0.916667 0
-0.708333 -0.958333 0
-0.708333 -0.944444 0
-0.708333 -0.930556 0
-0.708333 -0.916667 0
-0.75 -0.958333 0
-0.736111 -0.958333 0
-0.722222 -0.958333 0
-0.708333 -0.958333 0
-0.75 -0.916667 0
-0.736111 -0.916667 0
-0.722222 -0.916667 0
-0.708333 -0.916667 0
-0.708333 -0.958333 0
-0.708333 -0.944444 0
-0.708333 -0.930556 0
-0.708333 -0.916667 0
-0.666667 -0.958333 0
-0.666667 -0.944444 0
-0.666667 -0.930556 0
-0.666667 -0.916667 0
-0.708333 -0.958333 0
-0.694444 -0.958333 0
-0.680556 -0.958333 0
-0.666667 -0.958333 0
-0.708333 -0.916667 0
-0.694444 -0.916667 0
-0.680556 -0.916667 0
-0.666667 -0.916667 0
-0.833333 -0.916667 0
-0.833333 -0.902778 0
-0.833333 -0.888889 0
-0.833333 -0.875 0
-0.791667 -0.916667 0
-0.791667 -0.902778 0
-0.791667 -0.888889 0
-0.791667 -0.875 0
-0.833333 -0.916667 0
-0.819444 -0.916667 0
-0.805556 -0.916667 0
-0.791667 -0.916667 0
-0.833333 -0.875 0
-0.819444 -0.875 0
-0.805556 -0.875 0
-0.791667 -0.875 0
-0.791667 -0.916667 0
-0.791667 -0.902778 0
-0.791667 -0.888889 0
-0.791667 -0.875 0
-0.75 -0.916667 0
-0.75 -0.902778 0
-0.75 -0.888889 0
-0.75 -0.875 0
-0.791667 -0.916667 0
-0.777778 -0.916667 0
-0.763889 -0.916667 0
-0.75 -0.916667 0
-0.791667 -0.875 0
-0.777778 -0.875 0
-0.763889 -0.875 0
-0.75 -0.875 0
-0.833333 -0.875 0
-0.833333 -0.861111 0
-0.833333 -0.847222 0
-0.833333 -0.833333 0
-0.791667 -0.875 0
-0.791667 -0.861111 0
-0.791667 -0.847222 0
-0.791667 -0.833333 0
-0.833333 -0.875 0
-0.819444 -0.875 0
-0.805556 -0.875 0
-0.791667 -0.875 0
-0.833333 -0.833333 0
-0.819444 -0.833333 0
-0.805556 -0.833333 0
-0.791667 -0.833333 0
-0.791667 -0.875 0
-0.791667 -0.861111 0
-0.791667 -0.847222 0
-0.791667 -0.833333 0
-0.75 -0.875 0
-0.75 -0.861111 0
-0.75 -0.847222 0
-0.75 -0.833333 0
-0.791667 -0.875 0
-0.777778 -0.875 0
-0.763889 -0.875 0
-0.75 -0.875 0
-0.791667 -0.833333 0
-0.777778 -0.833333 0
-0.763889 -0.833333 0
-0.75 -0.833333 0
-0.75 -0.916667 0
-0.75 -0.902778 0
-0.75 -0.888889 0
-0.75 -0.875 0
-0.708333 -0.916667 0
-0.708333 -0.902778 0
-0.708333 -0.888889 0
-0.708333 -0.875 0
-0.75 -0.916667 0
-0.736111 -0.916667 0
-0.722222 -0.916667 0
-0.708333 -0.916667 0
-0.75 -0.875 0
-0.736111 -0.875 0
-0.722222 -0.875 0
-0.708333 -0.875 0
-0.708333 -0.916667 0
-0.708333 -0.902778 0
-0.708333 -0.888889 0
-0.708333 -0.875 0
-0.666667 -0.916667 0
-0.666667 -0.902778 0
-0.666667 -0.888889 0
-0.666667 -0.875 0
-0.708333 -0.916667 0
-0.694444 -0.916667 0
-0.680556 -0.916667 0
-0.666667 -0.916667 0
-0.708333 -0.875 0
-0.694444 -0.875 0
-0.680556 -0.875 0
-0.666667 -0.875 0
-0.75 -0.875 0
-0.75 -0.861111 0
-0.75 -0.847222 0
-0.75 -0.833333 0
-0.708333 -0.875 0
-0.708333 -0.861111 0
-0.708333 -0.847222 0
-0.708333 -0.833333 0
-0.75 -0.875 0
-0.736111 -0.875 0
-0.722222 -0.875 0
-0.708333 -0.875 0
-0.75 -0.833333 0
-0.736111 -0.833333 0
-0.722222 -0.833333 0
-0.708333 -0.833333 0
-0.708333 -0.875 0
-0.708333 -0.861111 0
[...]
POINT_DATA 36864
SCALARS u_hat double 1
LOOKUP_TABLE default
1.48502e-05 2.087e-05 2.91388e-05 4.01996e-05 4.02678e-05 5.66448e-05 7.9058e-05 0.000109114 1.48484e-05 2.08708e-05 2.91381e-05 4.02014e-05 4.02666e-05 5.66453e-05 7.90575e-05 0.000109115 4.02678e-05 5.66448e-05 7.9058e-05 0.000109114 0.000100175 0.000140933 0.000196689 0.000271478 4.02482e-05 5.50403e-05 7.46026e-05 0.000100073 0.000109196 0.000149364 0.000202431 0.000271576 4.02494e-05 5.50397e-05 7.46031e-05 0.000100072 0.000109196 0.000149364 0.000202431 0.000271576 4.02666e-05 5.66453e-05 7.90575e-05 0.000109115 0.000100173 0.000140934 0.000196688 0.000271481 0.000109196 0.000149364 0.000202431 0.000271576 0.000271668 0.000371613 0.000503635 0.000675673 0.000109196 0.000149364 0.000202431 0.000271576 0.000271667 0.000371614 0.000503634 0.000675675 0.000100175 0.000140933 0.000196689 0.000271478 0.000228499 0.000321486 0.00044866 0.000619276 0.000100085 0.000133058 0.000175146 0.000228348 0.000271597 0.000361059 0.000475275 0.000619631 0.000228499 0.000321486 0.00044866 0.000619276 0.000477873 0.000672372 0.000938333 0.00129519 0.000228271 0.000294883 0.000377038 0.000477646 0.000619496 0.000800157 0.00102315 0.00129606 0.000271668 0.000371613 0.000503635 0.000675673 0.000619691 0.000847687 0.00114883 0.00154128 0.000271597 0.000361059 0.000475275 0.000619631 0.000675722 0.000898295 0.00118246 0.00154161 0.000619691 0.000847687 0.00114883 0.00154128 0.00129603 0.00177288 0.0024027 0.00322349 0.000619496 0.000800157 0.00102315 0.00129606 0.0015413 0.00199074 0.00254555 0.0032245 0.000100085 0.000133058 0.000175146 0.000228349 0.000271596 0.000361059 0.000475275 0.000619631 0.000100173 0.000140934 0.000196688 0.000271481 0.000228495 0.000321488 0.000448658 0.000619281 0.000271596 0.000361059 0.000475275 0.000619631 0.000675721 0.000898295 0.00118246 0.00154161 0.000271667 0.000371614 0.000503634 0.000675675 0.000619689 0.000847688 0.00114883 0.00154128 0.000228267 0.000294885 0.000377037 0.000477651 0.000619493 0.000800158 0.00102315 0.00129606 0.000228495 0.000321488 0.000448658 0.000619281 0.000477866 0.000672375 0.00093833 0.0012952 0.000619493 0.000800158 0.00102315 0.00129606 0.00154129 0.00199074 0.00254555 0.00322451 0.000619689 0.000847688 0.00114883 0.00154128 0.00129602 0.00177288 0.00240269 0.00322349 0.000675721 0.000898295 0.00118246 0.00154161 0.00154138 0.00204909 0.0026973 0.00351654 0.000675722 0.000898295 0.00118246 0.00154161 0.00154139 0.00204909 0.0026973 0.00351654 0.00154138 0.00204909 0.0026973 0.00351654 0.0032237 0.00428552 0.00564121 0.00735459 0.0015413 0.00199074 0.00254555 0.0032245 0.00351586 0.00454104 0.00580663 0.00735535 0.00154129 0.00199074 0.00254555 0.00322451 0.00351585 0.00454105 0.00580663 0.00735536 0.00154139 0.00204909 0.0026973 0.00351654 0.0032237 0.00428552 0.00564121 0.00735458 0.00351585 0.00454105 0.00580663 0.00735536 0.00735318 0.00949726 0.0121442 0.0153832 0.00351586 0.00454104 0.00580663 0.00735535 0.00735321 0.00949725 0.0121442 0.0153832 0.000477873 0.000672372 0.000938333 0.00129519 0.000916314 0.00128931 0.00179928 0.0024836 0.000477433 0.00059914 0.000744207 0.000915939 0.00129569 0.00162575 0.00201952 0.00248532 0.000916314 0.00128931 0.00179928 0.0024836 0.00161094 0.00226676 0.0031633 0.00436646 0.000915605 0.00111607 0.00134684 0.00161026 0.00248474 0.00302846 0.00365481 0.00436937 0.00129603 0.00177288 0.0024027 0.00322349 0.00248516 0.00339958 0.00460725 0.00618118 0.00129569 0.00162575 0.00201952 0.00248532 0.00322365 0.00404476 0.00502447 0.0061833 0.00248516 0.00339958 0.00460725 0.00618118 0.00436914 0.00597682 0.00810001 0.0108672 0.00248474 0.00302846 0.00365481 0.00436937 0.00618197 0.00753462 0.00909301 0.0108707 0.00161094 0.00226676 0.0031633 0.00436646 0.00259667 0.00365387 0.00509899 0.00703846 0.00160993 0.00190613 0.00223482 0.00259546 0.0043688 0.00517236 0.00606438 0.00704281 0.00259667 0.00365387 0.00509899 0.00703846 0.00383758 0.00540009 0.0075358 0.0104022 0.00259534 0.00298481 0.00339991 0.00383558 0.00704261 0.00809948 0.00922588 0.0104081 0.00436914 0.00597682 0.00810001 0.0108672 0.0070427 0.00963422 0.0130566 0.0175171 0.0043688 0.00517236 0.00606438 0.00704281 0.0108694 0.0128685 0.0150879 0.0175221 0.0070427 0.00963422 0.0130566 0.0175171 0.0104084 0.0142385 0.0192964 0.0258887 0.00704261 0.00809948 0.00922588 0.0104081 0.0175216 0.0201511 0.0229535 0.0258949 0.0032237 0.00428552 0.00564121 0.00735459 0.00618157 0.00821764 0.0108172 0.0141027 0.00322365 0.00404476 0.00502447 0.0061833 0.00735349 0.00922642 0.0114613 0.0141046 0.00618157 0.00821764 0.0108172 0.0141027 0.0108678 0.0144475 0.0190178 0.024794 0.00618197 0.00753462 0.00909301 0.0108707 0.0141017 0.0171871 0.020742 0.024797 0.00735318 0.00949726 0.0121442 0.0153832 0.0141001 0.0182113 0.0232869 0.0294977 0.00735349 0.00922642 0.0114613 0.0141046 0.0153794 0.0192964 0.0239705 0.0294987 0.0141001 0.0182113 0.0232869 0.0294977 0.0247895 0.0320174 0.0409409 0.05186 0.0141017 0.0171871 0.020742 0.024797 0.0294928 0.0359456 0.0433804 0.051861 0.0108678 0.0144475 0.0190178 0.024794 0.0175182 0.0232883 0.0306554 0.0399661 0.0108694 0.0128685 0.0150879 0.0175221 0.0247941 0.0293542 0.0344168 0.0399694 0.0175182 0.0232883 0.0306554 0.0399661 0.0258902 0.0344178 0.0453057 0.059066 0.0175216 0.0201511 0.0229535 0.0258949 0.0399684 0.0459664 0.052359 0.0590685 0.0247895 0.0320174 0.0409409 0.05186 0.039959 0.0516096 0.0659937 0.0835945 0.0247941 0.0293542 0.0344168 0.0399694 0.0518552 0.0613923 0.0719803 0.0835931 0.039959 0.0516096 0.0659937 0.0835945 0.0590557 0.076274 0.0975325 0.123544 0.0399684 0.0459664 0.052359 0.0590685 0.083591 0.0961355 0.109505 0.123537 0.000477425 0.000599144 0.000744204 0.000915947 0.00129568 0.00162575 0.00201951 0.00248532 0.000477866 0.000672375 0.00093833 0.0012952 0.000916302 0.00128932 0.00179927 0.00248361 0.00129568 0.00162575 0.00201951 0.00248532 0.00322364 0.00404476 0.00502447 0.00618331 0.00129602 0.00177288 0.00240269 0.00322349 0.00248515 0.00339958 0.00460725 0.00618118 0.000915595 0.00111608 0.00134683 0.00161027 0.00248474 0.00302846 0.00365481 0.00436938 0.000916302 0.00128932 0.00179927 0.00248361 0.00161092 0.00226676 0.0031633 0.00436648 0.00248474 0.00302846 0.00365481 0.00436938 0.00618196 0.00753463 0.009093 0.0108707 0.00248515 0.00339958 0.00460725 0.00618118 0.00436913 0.00597682 0.00810001 0.0108672 0.00322364 0.00404476 0.00502447 0.00618331 0.00735347 0.00922643 0.0114613 0.0141046 0.0032237 0.00428552 0.00564121 0.00735458 0.00618157 0.00821764 0.0108172 0.0141027 0.00735347 0.00922643 0.0114613 0.0141046 0.0153793 0.0192964 0.0239705 0.0294987 0.00735321 0.00949725 0.0121442 0.0153832 0.0141001 0.0182113 0.0232869 0.0294977 0.00618196 0.00753463 0.009093 0.0108707 0.0141017 0.0171871 0.020742 0.024797 0.00618157 0.00821764 0.0108172 0.0141027 0.0108679 0.0144475 0.0190178 0.024794 0.0141017 0.0171871 0.020742 0.024797 0.0294928 0.0359456 0.0433804 0.051861 0.0141001 0.0182113 0.0232869 0.0294977 0.0247895 0.0320173 0.0409409 0.05186 0.00160993 0.00190613 0.00223481 0.00259547 0.0043688 0.00517236 0.00606438 0.00704282 0.00161092 0.00226676 0.0031633 0.00436648 0.00259665 0.00365388 0.00509899 0.00703848 0.0043688 0.00517236 0.00606438 0.00704282 0.0108694 0.0128685 0.0150879 0.0175221 0.00436913 0.00597682 0.00810001 0.0108672 0.00704269 0.00963422 0.0130566 0.0175172 0.00259534 0.00298481 0.00339991 0.00383557 0.00704261 0.00809948 0.00922588 0.0104081 0.00259665 0.00365388 0.00509899 0.00703848 0.00383756 0.0054001 0.0075358 0.0104022 0.00704261 0.00809948 0.00922588 0.0104081 0.0175216 0.0201511 0.0229535 0.0258949 0.00704269 0.00963422 0.0130566 0.0175172 0.0104084 0.0142385 0.0192964 0.0258887 0.0108694 0.0128685 0.0150879 0.0175221 0.0247941 0.0293542 0.0344168 0.0399694 0.0108679 0.0144475 0.0190178 0.024794 0.0175182 0.0232883 0.0306554 0.0399661 0.0247941 0.0293542 0.0344168 0.0399694 0.0518552 0.0613923 0.0719803 0.0835931 0.0247895 0.0320173 0.0409409 0.05186 0.039959 0.0516096 0.0659938 0.0835944 0.0175216 0.0201511 0.0229535 0.0258949 0.0399684 0.0459664 0.052359 0.0590685 0.0175182 0.0232883 0.0306554 0.0399661 0.0258903 0.0344178 0.0453057 0.059066 0.0399684 0.0459664 0.052359 0.0590685 0.083591 0.0961355 0.109505 0.123537 0.039959 0.0516096 0.0659938 0.0835944 0.0590557 0.076274 0.0975325 0.123544 0.0153793 0.0192964 0.0239705 0.0294987 0.0294906 0.0370015 0.0459643 0.0565647 0.0153794 0.0192964 0.0239705 0.0294987 0.0294907 0.0370014 0.0459644 0.0565647 0.0294906 0.0370015 0.0459643 0.0565647 0.0518478 0.0650524 0.0808102 0.0994465 0.0294928 0.0359456 0.0433804 0.051861 0.0565537 0.0689269 0.0831837 0.0994452 0.0294928 0.0359456 0.0433804 0.051861 0.0565536 0.0689269 0.0831836 0.0994453 0.0294907 0.0370014 0.0459644 0.0565647 0.0518479 0.0650523 0.0808102 0.0994464 0.0565536 0.0689269 0.0831836 0.0994453 0.0994275 0.121181 0.146246 0.174835 0.0565537 0.0689269 0.0831837 0.0994452 0.0994276 0.121181 0.146246 0.174835 0.0518478 0.0650524 0.0808102 0.0994465 0.0835751 0.10486 0.13026 0.1603 0.0518552 0.0613923 0.0719803 0.0835931 0.0994344 0.117722 0.138025 0.160293 0.0835751 0.10486 0.13026 0.1603 0.123516 0.154972 0.192512 0.236908 0.083591 0.0961355 0.109505 0.123537 0.160289 0.184343 0.20998 0.236888 0.0994275 0.121181 0.146246 0.174835 0.16027 0.195334 0.235737 0.281821 0.0994344 0.117722 0.138025 0.160293 0.174816 0.206967 0.242663 0.281811 0.16027 0.195334 0.235737 0.281821 0.236864 0.288685 0.348398 0.416504 0.160289 0.184343 0.20998 0.236888 0.281804 0.324095 0.369167 0.416473 0.0518552 0.0613923 0.0719803 0.0835931 0.0994343 0.117722 0.138025 0.160293 0.0518479 0.0650523 0.0808102 0.0994464 0.0835752 0.10486 0.13026 0.1603 0.0994343 0.117722 0.138025 0.160293 0.174816 0.206967 0.242662 0.281811 0.0994276 0.121181 0.146246 0.174835 0.16027 0.195334 0.235738 0.281821 0.083591 0.0961355 0.109505 0.123537 0.160289 0.184343 0.20998 0.236888 0.0835752 0.10486 0.13026 0.1603 0.123516 0.154972 0.192512 0.236908 0.160289 0.184343 0.20998 0.236888 0.281805 0.324095 0.369167 0.416473 0.16027 0.195334 0.235738 0.281821 0.236864 0.288685 0.348398 0.416504 0.174816 0.206967 0.242662 0.281811 0.281791 0.333616 0.391154 0.454259 0.174816 0.206967 0.242663 0.281811 0.281791 0.333616 0.391154 0.454259 0.281791 0.333616 0.391154 0.454259 0.416461 0.493053 0.578089 0.671351 0.281804 0.324095 0.369167 0.416473 0.454248 0.522418 0.59507 0.671325 0.281805 0.324095 0.369167 0.416473 0.454248 0.522418 0.59507 0.671325 0.281791 0.333616 0.391154 0.454259 0.416461 0.493053 0.578089 0.671351 0.454248 0.522418 0.59507 0.671325 0.671336 0.772083 0.879456 0.992154 0.454248 0.522418 0.59507 0.671325 0.671335 0.772083 0.879456 0.992154 0.00383758 0.00540009 0.0075358 0.0104022 0.00519998 0.00731727 0.0102112 0.0140953 0.00383585 0.00428535 0.00474231 0.00519702 0.0104086 0.0116287 0.0128685 0.0141027 0.00519998 0.00731727 0.0102112 0.0140953 0.00646022 0.0090907 0.012686 0.0175115 0.00519769 0.0056411 0.00606467 0.00645641 0.0141039 0.0153077 0.0164567 0.0175203 0.0104084 0.0142385 0.0192964 0.0258887 0.0141036 0.0192935 0.0261471 0.0350798 0.0104086 0.0116287 0.0128685 0.0141027 0.0258959 0.0289316 0.032016 0.0350869 0.0141036 0.0192935 0.0261471 0.0350798 0.0175217 0.0239695 0.0324841 0.0435819 0.0141039 0.0153077 0.0164567 0.0175203 0.0350896 0.0380848 0.0409434 0.0435898 0.00646022 0.0090907 0.012686 0.0175115 0.00735862 0.0103549 0.0144501 0.0199467 0.00645722 0.00680845 0.00711082 0.00735431 0.0175217 0.0184754 0.0192955 0.0199568 0.00735862 0.0103549 0.0144501 0.0199467 0.00768507 0.0108142 0.0150911 0.0208315 0.00735487 0.00753421 0.00764415 0.00768076 0.0199578 0.0204447 0.0207428 0.0208424 0.0175217 0.0239695 0.0324841 0.0435819 0.0199584 0.0273028 0.0370016 0.0496426 0.0175217 0.0184754 0.0192955 0.0199568 0.043593 0.0459658 0.0480062 0.0496516 0.0199584 0.0273028 0.0370016 0.0496426 0.0208438 0.0285139 0.0386429 0.0518446 0.0199578 0.0204447 0.0207428 0.0208424 0.0496538 0.0508653 0.0516071 0.0518549 0.0258902 0.0344178 0.0453057 0.059066 0.0350819 0.046637 0.0613903 0.0800359 0.0258959 0.0289316 0.032016 0.0350869 0.0590708 0.0659956 0.0730314 0.0800364 0.0350819 0.046637 0.0613903 0.0800359 0.0435844 0.05794 0.076269 0.0994335 0.0350896 0.0380848 0.0409434 0.0435898 0.0800422 0.0868748 0.0933954 0.0994323 0.0590557 0.076274 0.0975325 0.123544 0.080022 0.103353 0.132159 0.167406 0.0590708 0.0659956 0.0730314 0.0800364 0.123542 0.138025 0.15274 0.167391 0.080022 0.103353 0.132159 0.167406 0.0994163 0.128402 0.164189 0.207978 0.0800422 0.0868748 0.0933954 0.0994323 0.167402 0.181693 0.19533 0.207956 0.0435844 0.05794 0.076269 0.0994335 0.0496455 0.0659974 0.0868754 0.113261 0.043593 0.0459658 0.0480062 0.0496516 0.0994393 0.104852 0.109506 0.11326 0.0496455 0.0659974 0.0868754 0.113261 0.0518477 0.068925 0.090729 0.118285 0.0496538 0.0508653 0.0516071 0.0518549 0.113265 0.116028 0.11772 0.118286 0.0994163 0.128402 0.164189 0.207978 0.113242 0.146258 0.187022 0.236901 0.0994393 0.104852 0.109506 0.11326 0.20797 0.219291 0.229025 0.236875 0.113242 0.146258 0.187022 0.236901 0.118265 0.152746 0.195318 0.24741 0.113265 0.116028 0.11772 0.118286 0.236885 0.242665 0.246204 0.247386 0.00768507 0.0108142 0.0150911 0.0208315 0.00735871 0.0103549 0.0144502 0.0199466 0.00768076 0.00764415 0.00753421 0.00735486 0.0208424 0.0207428 0.0204447 0.0199578 0.00735871 0.0103549 0.0144502 0.0199466 0.00646039 0.00909064 0.012686 0.0175113 0.00735431 0.00711082 0.00680845 0.00645723 0.0199568 0.0192955 0.0184754 0.0175217 0.0208438 0.0285139 0.0386429 0.0518446 0.0199585 0.0273028 0.0370016 0.0496425 0.0208424 0.0207428 0.0204447 0.0199578 0.0518549 0.0516071 0.0508653 0.0496538 0.0199585 0.0273028 0.0370016 0.0496425 0.0175219 0.0239694 0.0324842 0.0435817 0.0199568 0.0192955 0.0184754 0.0175217 0.0496516 0.0480062 0.0459658 0.043593 0.00646039 0.00909064 0.012686 0.0175113 0.00520018 0.00731719 0.0102113 0.0140951 0.00645641 0.00606467 0.0056411 0.00519769 0.0175203 0.0164567 0.0153077 0.0141039 0.00520018 0.00731719 0.0102113 0.0140951 0.00383779 0.00540001 0.00753589 0.010402 0.00519702 0.00474231 0.00428535 0.00383585 0.0141027 0.0128685 0.0116287 0.0104086 0.0175219 0.0239694 0.0324842 0.0435817 0.0141038 0.0192934 0.0261472 0.0350797 0.0175203 0.0164567 0.0153077 0.0141039 0.0435898 0.0409434 0.0380848 0.0350896 0.0141038 0.0192934 0.0261472 0.0350797 0.0104086 0.0142384 0.0192965 0.0258885 0.0141027 0.0128685 0.0116287 0.0104086 0.0350869 0.0320161 0.0289316 0.0258959 0.0518477 0.068925 0.090729 0.118285 0.0496455 0.0659975 0.0868754 0.113261 0.0518549 0.0516071 0.0508653 0.0496538 0.118286 0.11772 0.116028 0.113265 0.0496455 0.0659975 0.0868754 0.113261 0.0435844 0.05794 0.076269 0.0994335 0.0496516 0.0480062 0.0459658 0.043593 0.11326 0.109506 0.104852 0.0994393 0.118265 0.152746 0.195318 0.24741 0.113241 0.146258 0.187022 0.236901 0.118286 0.11772 0.116028 0.113265 0.247386 0.246204 0.242665 0.236885 0.113241 0.146258 0.187022 0.236901 0.0994158 0.128402 0.164189 0.207979 0.11326 0.109506 0.104852 0.0994393 0.236875 0.229025 0.219291 0.20797 0.0435844 0.05794 0.076269 0.0994335 0.0350818 0.046637 0.0613903 0.0800359 0.0435898 0.0409434 0.0380848 0.0350896 0.0994323 0.0933954 0.0868748 0.0800423 0.0350818 0.046637 0.0613903 0.0800359 0.0258902 0.0344178 0.0453057 0.0590661 0.0350869 0.0320161 0.0289316 0.0258959 0.0800364 0.0730314 0.0659956 0.0590709 0.0994158 0.128402 0.164189 0.207979 0.0800214 0.103353 0.132159 0.167406 0.0994323 0.0933954 0.0868748 0.0800423 0.207956 0.19533 0.181693 0.167402 0.0800214 0.103353 0.132159 0.167406 0.0590551 0.0762742 0.0975323 0.123545 0.0800364 0.0730314 0.0659956 0.0590709 0.167391 0.15274 0.138025 0.123542 0.123516 0.154972 0.192512 0.236908 0.167368 0.209991 0.260859 0.321016 0.123542 0.138025 0.15274 0.167391 0.236897 0.264668 0.292884 0.320978 0.167368 0.209991 0.260859 0.321016 0.207931 0.260885 0.324081 0.398818 0.167402 0.181693 0.19533 0.207956 0.321 0.348402 0.374552 0.398763 0.236864 0.288685 0.348398 0.416504 0.320957 0.391175 0.472087 0.564373 0.236897 0.264668 0.292884 0.320978 0.416489 0.465315 0.514921 0.564313 0.320957 0.391175 0.472087 0.564373 0.398745 0.485981 0.586503 0.701155 0.321 0.348402 0.374552 0.398763 0.564351 0.612528 0.658501 0.701068 0.207931 0.260885 0.324081 0.398818 0.236847 0.297165 0.36915 0.45428 0.20797 0.219291 0.229025 0.236875 0.39879 0.420498 0.439163 0.454217 0.236847 0.297165 0.36915 0.45428 0.247353 0.310347 0.385525 0.474431 0.236885 0.242665 0.246204 0.247386 0.454235 0.465319 0.472104 0.474372 0.398745 0.485981 0.586503 0.701155 0.454197 0.553564 0.668066 0.798661 0.39879 0.420498 0.439163 0.454217 0.701114 0.73928 0.772094 0.798562 0.454197 0.553564 0.668066 0.798661 0.474344 0.57812 0.6977 0.834089 0.454235 0.465319 0.472104 0.474372 0.798593 0.818079 0.830009 0.833996 0.416461 0.493053 0.578089 0.671351 0.564314 0.668098 0.783325 0.909697 0.416489 0.465315 0.514921 0.564313 0.671349 0.750054 0.830015 0.909632 0.564314 0.668098 0.783325 0.909697 0.701083 0.830019 0.973172 1.13017 0.564351 0.612528 0.658501 0.701068 0.909692 0.987351 1.06146 1.13007 0.671336 0.772083 0.879456 0.992154 0.909676 1.04619 1.19168 1.34439 0.671349 0.750054 0.830015 0.909632 0.99219 1.10851 1.22668 1.34435 0.909676 1.04619 1.19168 1.34439 1.13015 1.29975 1.4805 1.67022 0.909692 0.987351 1.06146 1.13007 1.34444 1.45921 1.56873 1.67014 0.701083 0.830019 0.973172 1.13017 0.798579 0.945446 1.10851 1.28734 0.701114 0.73928 0.772094 0.798562 1.13014 1.19167 1.24456 1.28722 0.798579 0.945446 1.10851 1.28734 0.834003 0.987385 1.15768 1.34444 0.798593 0.818079 0.830009 0.833996 1.28727 1.31868 1.33791 1.34434 1.13015 1.29975 1.4805 1.67022 1.28731 1.4805 1.68639 1.90249 1.13014 1.19167 1.24456 1.28722 1.67024 1.76117 1.83934 1.90239 1.28731 1.4805 1.68639 1.90249 1.34441 1.54617 1.7612 1.98688 1.28727 1.31868 1.33791 1.34434 1.90247 1.94889 1.97731 1.98681 0.247353 0.310347 0.385525 0.474431 0.236847 0.297165 0.36915 0.45428 0.247386 0.246204 0.242665 0.236885 0.474373 0.472104 0.465319 0.454235 0.236847 0.297165 0.36915 0.45428 0.20793 0.260885 0.324081 0.398819 0.236875 0.229025 0.219291 0.20797 0.454217 0.439163 0.420498 0.39879 0.474344 0.57812 0.6977 0.834089 0.454196 0.553564 0.668065 0.798662 0.474373 0.472104 0.465319 0.454235 0.833997 0.830009 0.818079 0.798593 0.454196 0.553564 0.668065 0.798662 0.398744 0.485981 0.586503 0.701156 0.454217 0.439163 0.420498 0.39879 0.798562 0.772094 0.73928 0.701114 0.20793 0.260885 0.324081 0.398819 0.167367 0.209992 0.260859 0.321017 0.207956 0.19533 0.181693 0.167402 0.398763 0.374552 0.348402 0.321 0.167367 0.209992 0.260859 0.321017 0.123515 0.154973 0.192512 0.236909 0.167391 0.15274 0.138025 0.123542 0.320978 0.292884 0.264668 0.236897 0.398744 0.485981 0.586503 0.701156 0.320956 0.391176 0.472087 0.564374 0.398763 0.374552 0.348402 0.321 0.701068 0.658501 0.612528 0.564351 0.320956 0.391176 0.472087 0.564374 0.236863 0.288686 0.348397 0.416505 0.320978 0.292884 0.264668 0.236897 0.564313 0.514921 0.465315 0.416489 0.834003 0.987385 1.15768 1.34444 0.798579 0.945447 1.10851 1.28734 0.833997 0.830009 0.818079 0.798593 1.34434 1.33791 1.31868 1.28727 0.798579 0.945447 1.10851 1.28734 0.701082 0.83002 0.973172 1.13017 0.798562 0.772094 0.73928 0.701114 1.28722 1.24456 1.19167 1.13014 1.34441 1.54617 1.7612 1.98688 1.28731 1.4805 1.68639 1.90249 1.34434 1.33791 1.31868 1.28727 1.98681 1.97731 1.94889 1.90247 1.28731 1.4805 1.68639 1.90249 1.13015 1.29975 1.4805 1.67022 1.28722 1.24456 1.19167 1.13014 1.90239 1.83934 1.76117 1.67024 0.701082 0.83002 0.973172 1.13017 0.564313 0.668099 0.783324 0.909698 0.701068 0.658501 0.612528 0.564351 1.13007 1.06146 0.987351 0.909692 0.564313 0.668099 0.783324 0.909698 0.416459 0.493053 0.578088 0.671352 0.564313 0.514921 0.465315 0.416489 0.909632 0.830015 0.750054 0.671349 1.13015 1.29975 1.4805 1.67022 0.909676 1.04619 1.19168 1.34439 1.13007 1.06146 0.987351 0.909692 1.67014 1.56873 1.45921 1.34444 0.909676 1.04619 1