# vtk DataFile Version 3.0
#This file was generated by the deal.II library on 2020/8/22 at 21:54:03
ASCII
DATASET UNSTRUCTURED_GRID

POINTS 1024 double
-1 -1 0
-1 -0.916667 0
-1 -0.833333 0
-1 -0.75 0
-0.75 -1 0
-0.75 -0.916667 0
-0.75 -0.833333 0
-0.75 -0.75 0
-1 -1 0
-0.916667 -1 0
-0.833333 -1 0
-0.75 -1 0
-1 -0.75 0
-0.916667 -0.75 0
-0.833333 -0.75 0
-0.75 -0.75 0
-0.75 -1 0
-0.75 -0.916667 0
-0.75 -0.833333 0
-0.75 -0.75 0
-0.5 -1 0
-0.5 -0.916667 0
-0.5 -0.833333 0
-0.5 -0.75 0
-0.75 -1 0
-0.666667 -1 0
-0.583333 -1 0
-0.5 -1 0
-0.75 -0.75 0
-0.666667 -0.75 0
-0.583333 -0.75 0
-0.5 -0.75 0
-1 -0.75 0
-1 -0.666667 0
-1 -0.583333 0
-1 -0.5 0
-0.75 -0.75 0
-0.75 -0.666667 0
-0.75 -0.583333 0
-0.75 -0.5 0
-1 -0.75 0
-0.916667 -0.75 0
-0.833333 -0.75 0
-0.75 -0.75 0
-1 -0.5 0
-0.916667 -0.5 0
-0.833333 -0.5 0
-0.75 -0.5 0
-0.75 -0.75 0
-0.75 -0.666667 0
-0.75 -0.583333 0
-0.75 -0.5 0
-0.5 -0.75 0
-0.5 -0.666667 0
-0.5 -0.583333 0
-0.5 -0.5 0
-0.75 -0.75 0
-0.666667 -0.75 0
-0.583333 -0.75 0
-0.5 -0.75 0
-0.75 -0.5 0
-0.666667 -0.5 0
-0.583333 -0.5 0
-0.5 -0.5 0
-0.5 -1 0
-0.5 -0.916667 0
-0.5 -0.833333 0
-0.5 -0.75 0
-0.25 -1 0
-0.25 -0.916667 0
-0.25 -0.833333 0
-0.25 -0.75 0
-0.5 -1 0
-0.416667 -1 0
-0.333333 -1 0
-0.25 -1 0
-0.5 -0.75 0
-0.416667 -0.75 0
-0.333333 -0.75 0
-0.25 -0.75 0
-0.25 -1 0
-0.25 -0.916667 0
-0.25 -0.833333 0
-0.25 -0.75 0
0 -1 0
0 -0.916667 0
0 -0.833333 0
0 -0.75 0
-0.25 -1 0
-0.166667 -1 0
-0.0833333 -1 0
0 -1 0
-0.25 -0.75 0
-0.166667 -0.75 0
-0.0833333 -0.75 0
0 -0.75 0
-0.5 -0.75 0
-0.5 -0.666667 0
-0.5 -0.583333 0
-0.5 -0.5 0
-0.25 -0.75 0
-0.25 -0.666667 0
-0.25 -0.583333 0
-0.25 -0.5 0
-0.5 -0.75 0
-0.416667 -0.75 0
-0.333333 -0.75 0
-0.25 -0.75 0
-0.5 -0.5 0
-0.416667 -0.5 0
-0.333333 -0.5 0
-0.25 -0.5 0
-0.25 -0.75 0
-0.25 -0.666667 0
-0.25 -0.583333 0
-0.25 -0.5 0
0 -0.75 0
0 -0.666667 0
0 -0.583333 0
0 -0.5 0
-0.25 -0.75 0
-0.166667 -0.75 0
-0.0833333 -0.75 0
0 -0.75 0
-0.25 -0.5 0
-0.166667 -0.5 0
-0.0833333 -0.5 0
0 -0.5 0
-1 -0.5 0
-1 -0.416667 0
-1 -0.333333 0
-1 -0.25 0
-0.75 -0.5 0
-0.75 -0.416667 0
-0.75 -0.333333 0
-0.75 -0.25 0
-1 -0.5 0
-0.916667 -0.5 0
-0.833333 -0.5 0
-0.75 -0.5 0
-1 -0.25 0
-0.916667 -0.25 0
-0.833333 -0.25 0
-0.75 -0.25 0
-0.75 -0.5 0
-0.75 -0.416667 0
-0.75 -0.333333 0
-0.75 -0.25 0
-0.5 -0.5 0
-0.5 -0.416667 0
-0.5 -0.333333 0
-0.5 -0.25 0
-0.75 -0.5 0
-0.666667 -0.5 0
-0.583333 -0.5 0
-0.5 -0.5 0
-0.75 -0.25 0
-0.666667 -0.25 0
-0.583333 -0.25 0
-0.5 -0.25 0
-1 -0.25 0
-1 -0.166667 0
-1 -0.0833333 0
-1 0 0
-0.75 -0.25 0
-0.75 -0.166667 0
-0.75 -0.0833333 0
-0.75 0 0
-1 -0.25 0
-0.916667 -0.25 0
-0.833333 -0.25 0
-0.75 -0.25 0
-1 0 0
-0.916667 0 0
-0.833333 0 0
-0.75 0 0
-0.75 -0.25 0
-0.75 -0.166667 0
-0.75 -0.0833333 0
-0.75 0 0
-0.5 -0.25 0
-0.5 -0.166667 0
-0.5 -0.0833333 0
-0.5 0 0
-0.75 -0.25 0
-0.666667 -0.25 0
-0.583333 -0.25 0
-0.5 -0.25 0
-0.75 0 0
-0.666667 0 0
-0.583333 0 0
-0.5 0 0
-0.5 -0.5 0
-0.5 -0.416667 0
-0.5 -0.333333 0
-0.5 -0.25 0
-0.25 -0.5 0
-0.25 -0.416667 0
-0.25 -0.333333 0
-0.25 -0.25 0
-0.5 -0.5 0
-0.416667 -0.5 0
-0.333333 -0.5 0
-0.25 -0.5 0
-0.5 -0.25 0
-0.416667 -0.25 0
-0.333333 -0.25 0
-0.25 -0.25 0
-0.25 -0.5 0
-0.25 -0.416667 0
-0.25 -0.333333 0
-0.25 -0.25 0
0 -0.5 0
0 -0.416667 0
0 -0.333333 0
0 -0.25 0
-0.25 -0.5 0
-0.166667 -0.5 0
-0.0833333 -0.5 0
0 -0.5 0
-0.25 -0.25 0
-0.166667 -0.25 0
-0.0833333 -0.25 0
0 -0.25 0
-0.5 -0.25 0
-0.5 -0.166667 0
-0.5 -0.0833333 0
-0.5 0 0
-0.25 -0.25 0
-0.25 -0.166667 0
-0.25 -0.0833333 0
-0.25 0 0
-0.5 -0.25 0
-0.416667 -0.25 0
-0.333333 -0.25 0
-0.25 -0.25 0
-0.5 0 0
-0.416667 0 0
-0.333333 0 0
-0.25 0 0
-0.25 -0.25 0
-0.25 -0.166667 0
-0.25 -0.0833333 0
-0.25 0 0
0 -0.25 0
0 -0.166667 0
0 -0.0833333 0
0 0 0
-0.25 -0.25 0
-0.166667 -0.25 0
-0.0833333 -0.25 0
0 -0.25 0
-0.25 0 0
-0.166667 0 0
-0.0833333 0 0
0 0 0
0 -1 0
0 -0.916667 0
0 -0.833333 0
0 -0.75 0
0.25 -1 0
0.25 -0.916667 0
0.25 -0.833333 0
0.25 -0.75 0
0 -1 0
0.0833333 -1 0
0.166667 -1 0
0.25 -1 0
0 -0.75 0
0.0833333 -0.75 0
0.166667 -0.75 0
0.25 -0.75 0
0.25 -1 0
0.25 -0.916667 0
0.25 -0.833333 0
0.25 -0.75 0
0.5 -1 0
0.5 -0.916667 0
0.5 -0.833333 0
0.5 -0.75 0
0.25 -1 0
0.333333 -1 0
0.416667 -1 0
0.5 -1 0
0.25 -0.75 0
0.333333 -0.75 0
0.416667 -0.75 0
0.5 -0.75 0
0 -0.75 0
0 -0.666667 0
0 -0.583333 0
0 -0.5 0
0.25 -0.75 0
0.25 -0.666667 0
0.25 -0.583333 0
0.25 -0.5 0
0 -0.75 0
0.0833333 -0.75 0
0.166667 -0.75 0
0.25 -0.75 0
0 -0.5 0
0.0833333 -0.5 0
0.166667 -0.5 0
0.25 -0.5 0
0.25 -0.75 0
0.25 -0.666667 0
0.25 -0.583333 0
0.25 -0.5 0
0.5 -0.75 0
0.5 -0.666667 0
0.5 -0.583333 0
0.5 -0.5 0
0.25 -0.75 0
0.333333 -0.75 0
0.416667 -0.75 0
0.5 -0.75 0
0.25 -0.5 0
0.333333 -0.5 0
0.416667 -0.5 0
0.5 -0.5 0
0.5 -1 0
0.5 -0.916667 0
0.5 -0.833333 0
0.5 -0.75 0
0.75 -1 0
0.75 -0.916667 0
0.75 -0.833333 0
0.75 -0.75 0
0.5 -1 0
0.583333 -1 0
0.666667 -1 0
0.75 -1 0
0.5 -0.75 0
0.583333 -0.75 0
0.666667 -0.75 0
0.75 -0.75 0
0.75 -1 0
0.75 -0.916667 0
0.75 -0.833333 0
0.75 -0.75 0
1 -1 0
1 -0.916667 0
1 -0.833333 0
1 -0.75 0
0.75 -1 0
0.833333 -1 0
0.916667 -1 0
1 -1 0
0.75 -0.75 0
0.833333 -0.75 0
0.916667 -0.75 0
1 -0.75 0
0.5 -0.75 0
0.5 -0.666667 0
0.5 -0.583333 0
0.5 -0.5 0
0.75 -0.75 0
0.75 -0.666667 0
0.75 -0.583333 0
0.75 -0.5 0
0.5 -0.75 0
0.583333 -0.75 0
0.666667 -0.75 0
0.75 -0.75 0
0.5 -0.5 0
0.583333 -0.5 0
0.666667 -0.5 0
0.75 -0.5 0
0.75 -0.75 0
0.75 -0.666667 0
0.75 -0.583333 0
0.75 -0.5 0
1 -0.75 0
1 -0.666667 0
1 -0.583333 0
1 -0.5 0
0.75 -0.75 0
0.833333 -0.75 0
0.916667 -0.75 0
1 -0.75 0
0.75 -0.5 0
0.833333 -0.5 0
0.916667 -0.5 0
1 -0.5 0
0 -0.5 0
0 -0.416667 0
0 -0.333333 0
0 -0.25 0
0.25 -0.5 0
0.25 -0.416667 0
0.25 -0.333333 0
0.25 -0.25 0
0 -0.5 0
0.0833333 -0.5 0
0.166667 -0.5 0
0.25 -0.5 0
0 -0.25 0
0.0833333 -0.25 0
0.166667 -0.25 0
0.25 -0.25 0
0.25 -0.5 0
0.25 -0.416667 0
0.25 -0.333333 0
0.25 -0.25 0
0.5 -0.5 0
0.5 -0.416667 0
0.5 -0.333333 0
0.5 -0.25 0
0.25 -0.5 0
0.333333 -0.5 0
0.416667 -0.5 0
0.5 -0.5 0
0.25 -0.25 0
0.333333 -0.25 0
0.416667 -0.25 0
0.5 -0.25 0
0 -0.25 0
0 -0.166667 0
0 -0.0833333 0
0 0 0
0.25 -0.25 0
0.25 -0.166667 0
0.25 -0.0833333 0
0.25 0 0
0 -0.25 0
0.0833333 -0.25 0
0.166667 -0.25 0
0.25 -0.25 0
0 0 0
0.0833333 0 0
0.166667 0 0
0.25 0 0
0.25 -0.25 0
0.25 -0.166667 0
0.25 -0.0833333 0
0.25 0 0
0.5 -0.25 0
0.5 -0.166667 0
0.5 -0.0833333 0
0.5 0 0
0.25 -0.25 0
0.333333 -0.25 0
0.416667 -0.25 0
0.5 -0.25 0
0.25 0 0
0.333333 0 0
0.416667 0 0
0.5 0 0
0.5 -0.5 0
0.5 -0.416667 0
0.5 -0.333333 0
0.5 -0.25 0
0.75 -0.5 0
0.75 -0.416667 0
0.75 -0.333333 0
0.75 -0.25 0
0.5 -0.5 0
0.583333 -0.5 0
0.666667 -0.5 0
0.75 -0.5 0
0.5 -0.25 0
0.583333 -0.25 0
0.666667 -0.25 0
0.75 -0.25 0
0.75 -0.5 0
0.75 -0.416667 0
0.75 -0.333333 0
0.75 -0.25 0
1 -0.5 0
1 -0.416667 0
1 -0.333333 0
1 -0.25 0
0.75 -0.5 0
0.833333 -0.5 0
0.916667 -0.5 0
1 -0.5 0
0.75 -0.25 0
0.833333 -0.25 0
0.916667 -0.25 0
1 -0.25 0
0.5 -0.25 0
0.5 -0.166667 0
0.5 -0.0833333 0
0.5 0 0
0.75 -0.25 0
0.75 -0.166667 0
0.75 -0.0833333 0
0.75 0 0
0.5 -0.25 0
0.583333 -0.25 0
0.666667 -0.25 0
0.75 -0.25 0
0.5 0 0
0.583333 0 0
0.666667 0 0
0.75 0 0
0.75 -0.25 0
0.75 -0.166667 0
0.75 -0.0833333 0
0.75 0 0
1 -0.25 0
1 -0.166667 0
1 -0.0833333 0
1 0 0
0.75 -0.25 0
0.833333 -0.25 0
0.916667 -0.25 0
1 -0.25 0
0.75 0 0
0.833333 0 0
0.916667 0 0
1 0 0
-1 0 0
-1 0.0833333 0
-1 0.166667 0
-1 0.25 0
-0.75 0 0
-0.75 0.0833333 0
-0.75 0.166667 0
-0.75 0.25 0
-1 0 0
-0.916667 0 0
-0.833333 0 0
-0.75 0 0
-1 0.25 0
-0.916667 0.25 0
-0.833333 0.25 0
-0.75 0.25 0
-0.75 0 0
-0.75 0.0833333 0
-0.75 0.166667 0
-0.75 0.25 0
-0.5 0 0
-0.5 0.0833333 0
-0.5 0.166667 0
-0.5 0.25 0
-0.75 0 0
-0.666667 0 0
-0.583333 0 0
-0.5 0 0
-0.75 0.25 0
-0.666667 0.25 0
-0.583333 0.25 0
-0.5 0.25 0
-1 0.25 0
-1 0.333333 0
-1 0.416667 0
-1 0.5 0
-0.75 0.25 0
-0.75 0.333333 0
-0.75 0.416667 0
-0.75 0.5 0
-1 0.25 0
-0.916667 0.25 0
-0.833333 0.25 0
-0.75 0.25 0
-1 0.5 0
-0.916667 0.5 0
-0.833333 0.5 0
-0.75 0.5 0
-0.75 0.25 0
-0.75 0.333333 0
-0.75 0.416667 0
-0.75 0.5 0
-0.5 0.25 0
-0.5 0.333333 0
-0.5 0.416667 0
-0.5 0.5 0
-0.75 0.25 0
-0.666667 0.25 0
-0.583333 0.25 0
-0.5 0.25 0
-0.75 0.5 0
-0.666667 0.5 0
-0.583333 0.5 0
-0.5 0.5 0
-0.5 0 0
-0.5 0.0833333 0
-0.5 0.166667 0
-0.5 0.25 0
-0.25 0 0
-0.25 0.0833333 0
-0.25 0.166667 0
-0.25 0.25 0
-0.5 0 0
-0.416667 0 0
-0.333333 0 0
-0.25 0 0
-0.5 0.25 0
-0.416667 0.25 0
-0.333333 0.25 0
-0.25 0.25 0
-0.25 0 0
-0.25 0.0833333 0
-0.25 0.166667 0
-0.25 0.25 0
0 0 0
0 0.0833333 0
0 0.166667 0
0 0.25 0
-0.25 0 0
-0.166667 0 0
-0.0833333 0 0
0 0 0
-0.25 0.25 0
-0.166667 0.25 0
-0.0833333 0.25 0
0 0.25 0
-0.5 0.25 0
-0.5 0.333333 0
-0.5 0.416667 0
-0.5 0.5 0
-0.25 0.25 0
-0.25 0.333333 0
-0.25 0.416667 0
-0.25 0.5 0
-0.5 0.25 0
-0.416667 0.25 0
-0.333333 0.25 0
-0.25 0.25 0
-0.5 0.5 0
-0.416667 0.5 0
-0.333333 0.5 0
-0.25 0.5 0
-0.25 0.25 0
-0.25 0.333333 0
-0.25 0.416667 0
-0.25 0.5 0
0 0.25 0
0 0.333333 0
0 0.416667 0
0 0.5 0
-0.25 0.25 0
-0.166667 0.25 0
-0.0833333 0.25 0
0 0.25 0
-0.25 0.5 0
-0.166667 0.5 0
-0.0833333 0.5 0
0 0.5 0
-1 0.5 0
-1 0.583333 0
-1 0.666667 0
-1 0.75 0
-0.75 0.5 0
-0.75 0.583333 0
-0.75 0.666667 0
-0.75 0.75 0
-1 0.5 0
-0.916667 0.5 0
-0.833333 0.5 0
-0.75 0.5 0
-1 0.75 0
-0.916667 0.75 0
-0.833333 0.75 0
-0.75 0.75 0
-0.75 0.5 0
-0.75 0.583333 0
-0.75 0.666667 0
-0.75 0.75 0
-0.5 0.5 0
-0.5 0.583333 0
-0.5 0.666667 0
-0.5 0.75 0
-0.75 0.5 0
-0.666667 0.5 0
-0.583333 0.5 0
-0.5 0.5 0
-0.75 0.75 0
-0.666667 0.75 0
-0.583333 0.75 0
-0.5 0.75 0
-1 0.75 0
-1 0.833333 0
-1 0.916667 0
-1 1 0
-0.75 0.75 0
-0.75 0.833333 0
-0.75 0.916667 0
-0.75 1 0
-1 0.75 0
-0.916667 0.75 0
-0.833333 0.75 0
-0.75 0.75 0
-1 1 0
-0.916667 1 0
-0.833333 1 0
-0.75 1 0
-0.75 0.75 0
-0.75 0.833333 0
-0.75 0.916667 0
-0.75 1 0
-0.5 0.75 0
-0.5 0.833333 0
-0.5 0.916667 0
-0.5 1 0
-0.75 0.75 0
-0.666667 0.75 0
-0.583333 0.75 0
-0.5 0.75 0
-0.75 1 0
-0.666667 1 0
-0.583333 1 0
-0.5 1 0
-0.5 0.5 0
-0.5 0.583333 0
-0.5 0.666667 0
-0.5 0.75 0
-0.25 0.5 0
-0.25 0.583333 0
-0.25 0.666667 0
-0.25 0.75 0
-0.5 0.5 0
[...]
POINT_DATA 1024
SCALARS u_hat double 1
LOOKUP_TABLE default
0.002241 0.00290171 0.00309616 0.00467589 -0.00132328 0.0146932 0.0526826 0.181306 0.00230045 0.00253701 0.002578 0.00392619 -0.00035059 0.0149552 0.0530103 0.181026 -0.00132328 0.0146932 0.0526826 0.181306 -0.00950177 0.058982 0.243843 0.848469 0.00527472 0.00519134 0.00939611 0.00831148 0.20726 0.408932 0.714197 0.809444 0.00625856 0.00581166 0.0104044 0.0089817 0.208417 0.408407 0.714964 0.808731 -0.00035059 0.0149552 0.0530103 0.181026 -0.00829826 0.0596026 0.244548 0.848581 0.208417 0.408407 0.714964 0.808731 0.951466 1.95357 3.38537 3.88247 0.20726 0.408932 0.714197 0.809444 0.951217 1.95412 3.38513 3.88312 -0.00950177 0.058982 0.243843 0.848469 -0.00174834 0.0143708 0.0522112 0.180958 0.00825191 0.00931982 0.00495073 0.00508734 0.809062 0.714123 0.408264 0.207207 -0.00174834 0.0143708 0.0522112 0.180958 0.0014584 0.00213723 0.00254532 0.00527432 0.0037111 0.00217748 0.00205293 0.00153983 0.181041 0.0521175 0.0145379 -0.00054318 0.951466 1.95357 3.38537 3.88247 0.209435 0.407433 0.71496 0.806651 0.809062 0.714123 0.408264 0.207207 3.8825 3.38531 1.95348 0.951269 0.209435 0.407433 0.71496 0.806651 0.00735364 0.00832864 0.0159371 0.014961 0.181041 0.0521175 0.0145379 -0.00054318 0.849463 0.243119 0.0600942 -0.00422296 0.00904903 0.0103513 0.0057848 0.00599427 0.809124 0.714857 0.408765 0.208012 -0.00829826 0.0596026 0.244548 0.848581 -0.0011114 0.0151451 0.05276 0.181654 0.809124 0.714857 0.408765 0.208012 3.88309 3.38509 1.95393 0.950917 0.951217 1.95412 3.38513 3.88312 0.210843 0.407441 0.715717 0.80602 0.00449633 0.00286634 0.00263664 0.00202253 0.18152 0.0526608 0.0149577 -5.18916e-05 -0.0011114 0.0151451 0.05276 0.181654 0.00193832 0.00260867 0.00299413 0.00568993 0.18152 0.0526608 0.0149577 -5.18916e-05 0.849428 0.24353 0.0602672 -0.00369778 0.210843 0.407441 0.715717 0.80602 0.00776925 0.00870348 0.0162662 0.0152415 3.88309 3.38509 1.95393 0.950917 0.806581 0.714965 0.40737 0.20951 3.8825 3.38531 1.95348 0.951269 0.806091 0.715488 0.407101 0.210214 0.806581 0.714965 0.40737 0.20951 0.0149633 0.0158995 0.00824837 0.00721835 0.849463 0.243119 0.0600942 -0.00422296 0.181447 0.0518967 0.0146024 -0.00109366 0.849428 0.24353 0.0602672 -0.00369778 0.181364 0.0519986 0.014664 -0.000881473 0.806091 0.715488 0.407101 0.210214 0.0152437 0.0161301 0.00842905 0.00735028 0.181364 0.0519986 0.014664 -0.000881473 0.00515742 0.00234919 0.00189886 0.00113821 0.181447 0.0518967 0.0146024 -0.00109366 0.00528978 0.00243411 0.00194005 0.00113782 0.0014584 0.00213723 0.00254532 0.00527432 -0.00220625 0.0140801 0.0517355 0.180677 0.00154261 0.00195259 0.00197707 0.00340152 -0.000467497 0.0143502 0.0518661 0.180543 -0.00220625 0.0140801 0.0517355 0.180677 -0.00999492 0.057978 0.242996 0.847098 0.00489946 0.00448557 0.00885061 0.0073524 0.207035 0.407612 0.713534 0.807641 0.00735364 0.00832864 0.0159371 0.014961 0.209866 0.406516 0.714846 0.805204 -0.000467497 0.0143502 0.0518661 0.180543 -0.00397819 0.059802 0.242886 0.848612 0.209866 0.406516 0.714846 0.805204 0.949734 1.95271 3.38378 3.88183 0.207035 0.407612 0.713534 0.807641 0.950101 1.95295 3.38395 3.88179 -0.00999492 0.057978 0.242996 0.847098 -0.0025625 0.0128679 0.0510343 0.179132 0.00728504 0.00852077 0.0037537 0.00404373 0.807249 0.713331 0.406637 0.206526 -0.0025625 0.0128679 0.0510343 0.179132 2.16029e-06 9.99579e-05 0.000477466 0.00160672 0.00246218 0.000747003 0.00045017 -0.000266776 0.179413 0.0506951 0.0126332 -0.00343599 0.949734 1.95271 3.38378 3.88183 0.205347 0.407117 0.71241 0.807747 0.807249 0.713331 0.406637 0.206526 3.88118 3.38393 1.952 0.949746 0.205347 0.407117 0.71241 0.807747 0.00165993 0.00383598 0.00645702 0.00766803 0.179413 0.0506951 0.0126332 -0.00343599 0.846754 0.241973 0.0569595 -0.0116649 0.0149633 0.0158995 0.00824837 0.00721835 0.805275 0.714727 0.406393 0.209558 -0.00397819 0.059802 0.242886 0.848612 -0.00101042 0.014351 0.0515139 0.180703 0.805275 0.714727 0.406393 0.209558 3.8812 3.38408 1.9523 0.950132 0.950101 1.95295 3.38395 3.88179 0.208829 0.406557 0.713964 0.805467 0.00515742 0.00234919 0.00189886 0.00113821 0.180412 0.0514664 0.0137111 -0.0026079 -0.00101042 0.014351 0.0515139 0.180703 0.00130042 0.00154816 0.00160251 0.00290012 0.180412 0.0514664 0.0137111 -0.0026079 0.847157 0.242518 0.0576576 -0.010814 0.208829 0.406557 0.713964 0.805467 0.00386401 0.00430326 0.00794578 0.00741076 3.8812 3.38408 1.9523 0.950132 0.807364 0.712461 0.406697 0.205668 3.88118 3.38393 1.952 0.949746 0.805539 0.713673 0.406046 0.207892 0.807364 0.712461 0.406697 0.205668 0.00766803 0.00645702 0.00383598 0.00165993 0.846754 0.241973 0.0569595 -0.0116649 0.179434 0.050585 0.0126341 -0.00358834 0.847157 0.242518 0.0576576 -0.010814 0.179183 0.0508131 0.0128028 -0.00295354 0.805539 0.713673 0.406046 0.207892 0.00743293 0.00769311 0.00383356 0.0031165 0.179183 0.0508131 0.0128028 -0.00295354 0.00160672 0.000477466 9.99579e-05 2.16029e-06 0.179434 0.050585 0.0126341 -0.00358834 0.00213235 0.000656449 0.000305973 -0.000150368 0.00201974 0.00233004 0.00225293 0.0035853 -0.000127576 0.0147569 0.0521347 0.18085 0.00193832 0.00260867 0.00299413 0.00568993 -0.00187416 0.0142349 0.0520527 0.180767 -0.000127576 0.0147569 0.0521347 0.18085 -0.00394246 0.0601834 0.24301 0.849147 0.00776925 0.00870348 0.0162662 0.0152415 0.209244 0.407203 0.714689 0.806335 0.00496153 0.00462271 0.0087867 0.00750818 0.207016 0.407859 0.713493 0.808194 -0.00187416 0.0142349 0.0520527 0.180767 -0.0102455 0.0582027 0.243021 0.847601 0.207016 0.407859 0.713493 0.808194 0.950952 1.95295 3.38455 3.88149 0.209244 0.407203 0.714689 0.806335 0.950598 1.95266 3.3844 3.88147 -0.00394246 0.0601834 0.24301 0.849147 -0.00095892 0.0145476 0.0516527 0.180999 0.0152437 0.0161301 0.00842905 0.00735028 0.806264 0.714605 0.406966 0.209065 -0.00095892 0.0145476 0.0516527 0.180999 0.00129491 0.00158793 0.00167022 0.00300649 0.00528978 0.00243411 0.00194005 0.00113782 0.180543 0.051691 0.0138162 -0.00242906 0.950952 1.95295 3.38455 3.88149 0.209748 0.406456 0.714603 0.805013 0.806264 0.714605 0.406966 0.209065 3.88208 3.38405 1.95286 0.94982 0.209748 0.406456 0.714603 0.805013 0.0040514 0.00439235 0.00814899 0.00749212 0.180543 0.051691 0.0138162 -0.00242906 0.847157 0.242909 0.0577561 -0.0103929 0.00756767 0.00843239 0.003993 0.00381997 0.808576 0.713076 0.407537 0.205567 -0.0102455 0.0582027 0.243021 0.847601 -0.00277491 0.0131494 0.0510631 0.17961 0.808576 0.713076 0.407537 0.205567 3.88212 3.38386 1.95257 0.949351 0.950598 1.95266 3.3844 3.88147 0.206703 0.406656 0.713128 0.806887 0.00247183 0.000832611 0.00044994 -0.000203006 0.17933 0.0509923 0.0125738 -0.00315105 -0.00277491 0.0131494 0.0510631 0.17961 2.16029e-06 9.99579e-05 0.000477466 0.00160672 0.17933 0.0509923 0.0125738 -0.00315105 0.846721 0.242316 0.0569544 -0.0114063 0.206703 0.406656 0.713128 0.806887 0.00165993 0.00383598 0.00645702 0.00766803 3.88212 3.38386 1.95257 0.949351 0.80494 0.714377 0.405883 0.209005 3.88208 3.38405 1.95286 0.94982 0.807279 0.712973 0.406926 0.206173 0.80494 0.714377 0.405883 0.209005 0.00746756 0.00792226 0.00390465 0.00336854 0.847157 0.242909 0.0577561 -0.0103929 0.179357 0.051047 0.012909 -0.00275838 0.846721 0.242316 0.0569544 -0.0114063 0.17983 0.0506843 0.0127968 -0.00373713 0.807279 0.712973 0.406926 0.206173 0.00766803 0.00645702 0.00383598 0.00165993 0.17983 0.0506843 0.0127968 -0.00373713 0.00227445 0.000729184 0.000366118 -0.000177131 0.179357 0.051047 0.012909 -0.00275838 0.00160672 0.000477466 9.99579e-05 2.16029e-06 0.00129491 0.00158793 0.00167022 0.00300649 0.00210872 0.00137874 0.000800482 0.00128925 0.00130042 0.00154816 0.00160251 0.00290012 0.00220754 0.00144343 0.000829647 0.00129121 0.00210872 0.00137874 0.000800482 0.00128925 0.00635414 0.00211829 0.000182239 0.00179204 0.00386401 0.00430326 0.00794578 0.00741076 0.0009295 0.000802202 0.000727756 0.000599887 0.0040514 0.00439235 0.00814899 0.00749212 0.000933223 0.000827228 0.000777179 0.000655086 0.00220754 0.00144343 0.000829647 0.00129121 0.00653062 0.00224324 0.000274725 0.00184625 0.000933223 0.000827228 0.000777179 0.000655086 0.000618326 0.000556341 0.000493828 0.000431532 0.0009295 0.000802202 0.000727756 0.000599887 0.000677292 0.000589079 0.000506844 0.000431658 0.00635414 0.00211829 0.000182239 0.00179204 0.00142568 0.000678846 0.000173049 0.000648989 0.00743293 0.00769311 0.00383356 0.0031165 0.000600432 0.000528506 0.000403441 0.000327317 0.00142568 0.000678846 0.000173049 0.000648989 1.33085e-05 1.53958e-06 1.06061e-07 -5.22437e-07 0.00213235 0.000656449 0.000305973 -0.000150368 0.000310534 0.000203123 0.000103755 -2.78963e-06 0.000618326 0.000556341 0.000493828 0.000431532 0.000307125 0.000277222 0.000245707 0.000213891 0.000600432 0.000528506 0.000403441 0.000327317 0.000430208 0.000356705 0.00028425 0.000213776 0.000307125 0.000277222 0.000245707 0.000213891 4.55762e-09 2.13444e-10 1.0042e-12 -2.66023e-10 0.000310534 0.000203123 0.000103755 -2.78963e-06 0.000213521 0.000143067 7.23428e-05 -1.38491e-08 0.00746756 0.00792226 0.00390465 0.00336854 0.000653421 0.000592079 0.000454416 0.000376686 0.00653062 0.00224324 0.000274725 0.00184625 0.00154531 0.000763329 0.000238685 0.000687282 0.000653421 0.000592079 0.000454416 0.000376686 0.000430017 0.00036383 0.00029318 0.000221297 0.000677292 0.000589079 0.000506844 0.000431658 0.000350346 0.000305004 0.000261521 0.000221248 0.00227445 0.000729184 0.000366118 -0.000177131 0.000354866 0.000232172 0.000118839 -4.06475e-06 0.00154531 0.000763329 0.000238685 0.000687282 1.33085e-05 1.53958e-06 1.06061e-07 -5.22437e-07 0.000354866 0.000232172 0.000118839 -4.06475e-06 0.000220901 0.000146852 7.28373e-05 -8.24721e-08 0.000350346 0.000305004 0.000261521 0.000221248 4.55762e-09 2.13444e-10 1.0042e-12 -2.66023e-10 0.000430017 0.00036383 0.00029318 0.000221297 0.000213454 0.000179654 0.000144525 0.000108406 0.000430208 0.000356705 0.00028425 0.000213776 0.00022083 0.000181932 0.000144607 0.000108416 0.000213454 0.000179654 0.000144525 0.000108406 6.6686e-14 1.23002e-15 -7.09195e-17 -4.49026e-15 0.000213521 0.000143067 7.23428e-05 -1.38491e-08 0.000108408 7.27563e-05 3.6929e-05 2.32288e-08 0.000220901 0.000146852 7.28373e-05 -8.24721e-08 0.000108399 7.1779e-05 3.53481e-05 -1.01556e-08 0.00022083 0.000181932 0.000144607 0.000108416 6.6686e-14 1.23002e-15 -7.09195e-17 -4.49026e-15 0.000108399 7.1779e-05 3.53481e-05 -1.01556e-08 4.23434e-20 2.65444e-22 -5.6067e-23 -3.02249e-21 0.000108408 7.27563e-05 3.6929e-05 2.32288e-08 4.23434e-20 2.65444e-22 -5.6067e-23 -3.02249e-21 
