# vtk DataFile Version 3.0
#This file was generated by the deal.II library on 2020/8/22 at 21:53:35
ASCII
DATASET UNSTRUCTURED_GRID

POINTS 5816 double
0.5 0.5 0
0.5 1 0
1 0.5 0
1 1 0
0.5 0.5 0
1 0.5 0
0.5 1 0
1 1 0
0 0 0
0 0.25 0
0.25 0 0
0.25 0.25 0
0 0 0
0.25 0 0
0 0.25 0
0.25 0.25 0
0.25 0 0
0.25 0.25 0
0.5 0 0
0.5 0.25 0
0.25 0 0
0.5 0 0
0.25 0.25 0
0.5 0.25 0
0 0.25 0
0 0.5 0
0.25 0.25 0
0.25 0.5 0
0 0.25 0
0.25 0.25 0
0 0.5 0
0.25 0.5 0
0.25 0.25 0
0.25 0.5 0
0.5 0.25 0
0.5 0.5 0
0.25 0.25 0
0.5 0.25 0
0.25 0.5 0
0.5 0.5 0
0.5 0 0
0.5 0.25 0
0.75 0 0
0.75 0.25 0
0.5 0 0
0.75 0 0
0.5 0.25 0
0.75 0.25 0
0.75 0 0
0.75 0.25 0
1 0 0
1 0.25 0
0.75 0 0
1 0 0
0.75 0.25 0
1 0.25 0
0.5 0.25 0
0.5 0.5 0
0.75 0.25 0
0.75 0.5 0
0.5 0.25 0
0.75 0.25 0
0.5 0.5 0
0.75 0.5 0
0.75 0.25 0
0.75 0.5 0
1 0.25 0
1 0.5 0
0.75 0.25 0
1 0.25 0
0.75 0.5 0
1 0.5 0
0 0.5 0
0 0.75 0
0.25 0.5 0
0.25 0.75 0
0 0.5 0
0.25 0.5 0
0 0.75 0
0.25 0.75 0
0.25 0.5 0
0.25 0.75 0
0.5 0.5 0
0.5 0.75 0
0.25 0.5 0
0.5 0.5 0
0.25 0.75 0
0.5 0.75 0
0 0.75 0
0 1 0
0.25 0.75 0
0.25 1 0
0 0.75 0
0.25 0.75 0
0 1 0
0.25 1 0
0.25 0.75 0
0.25 1 0
0.5 0.75 0
0.5 1 0
0.25 0.75 0
0.5 0.75 0
0.25 1 0
0.5 1 0
-1 -0.5 0
-1 -0.375 0
-0.875 -0.5 0
-0.875 -0.375 0
-1 -0.5 0
-0.875 -0.5 0
-1 -0.375 0
-0.875 -0.375 0
-1 -0.375 0
-1 -0.25 0
-0.875 -0.375 0
-0.875 -0.25 0
-1 -0.375 0
-0.875 -0.375 0
-1 -0.25 0
-0.875 -0.25 0
-0.125 -0.5 0
-0.125 -0.375 0
0 -0.5 0
0 -0.375 0
-0.125 -0.5 0
0 -0.5 0
-0.125 -0.375 0
0 -0.375 0
-0.125 -0.375 0
-0.125 -0.25 0
0 -0.375 0
0 -0.25 0
-0.125 -0.375 0
0 -0.375 0
-0.125 -0.25 0
0 -0.25 0
-0.5 0 0
-0.5 0.125 0
-0.375 0 0
-0.375 0.125 0
-0.5 0 0
-0.375 0 0
-0.5 0.125 0
-0.375 0.125 0
-0.375 0 0
-0.375 0.125 0
-0.25 0 0
-0.25 0.125 0
-0.375 0 0
-0.25 0 0
-0.375 0.125 0
-0.25 0.125 0
-0.75 -0.125 0
-0.75 0 0
-0.625 -0.125 0
-0.625 0 0
-0.75 -0.125 0
-0.625 -0.125 0
-0.75 0 0
-0.625 0 0
-0.625 -0.125 0
-0.625 0 0
-0.5 -0.125 0
-0.5 0 0
-0.625 -0.125 0
-0.5 -0.125 0
-0.625 0 0
-0.5 0 0
-0.5 -0.125 0
-0.5 0 0
-0.375 -0.125 0
-0.375 0 0
-0.5 -0.125 0
-0.375 -0.125 0
-0.5 0 0
-0.375 0 0
-0.375 -0.125 0
-0.375 0 0
-0.25 -0.125 0
-0.25 0 0
-0.375 -0.125 0
-0.25 -0.125 0
-0.375 0 0
-0.25 0 0
-1 0.25 0
-1 0.375 0
-0.875 0.25 0
-0.875 0.375 0
-1 0.25 0
-0.875 0.25 0
-1 0.375 0
-0.875 0.375 0
-1 0.375 0
-1 0.5 0
-0.875 0.375 0
-0.875 0.5 0
-1 0.375 0
-0.875 0.375 0
-1 0.5 0
-0.875 0.5 0
-0.125 0.25 0
-0.125 0.375 0
0 0.25 0
0 0.375 0
-0.125 0.25 0
0 0.25 0
-0.125 0.375 0
0 0.375 0
-0.125 0.375 0
-0.125 0.5 0
0 0.375 0
0 0.5 0
-0.125 0.375 0
0 0.375 0
-0.125 0.5 0
0 0.5 0
-0.75 -1 0
-0.75 -0.875 0
-0.625 -1 0
-0.625 -0.875 0
-0.75 -1 0
-0.625 -1 0
-0.75 -0.875 0
-0.625 -0.875 0
-0.625 -1 0
-0.625 -0.875 0
-0.5 -1 0
-0.5 -0.875 0
-0.625 -1 0
-0.5 -1 0
-0.625 -0.875 0
-0.5 -0.875 0
-0.5 -1 0
-0.5 -0.875 0
-0.375 -1 0
-0.375 -0.875 0
-0.5 -1 0
-0.375 -1 0
-0.5 -0.875 0
-0.375 -0.875 0
-0.375 -1 0
-0.375 -0.875 0
-0.25 -1 0
-0.25 -0.875 0
-0.375 -1 0
-0.25 -1 0
-0.375 -0.875 0
-0.25 -0.875 0
0.25 -1 0
0.25 -0.875 0
0.375 -1 0
0.375 -0.875 0
0.25 -1 0
0.375 -1 0
0.25 -0.875 0
0.375 -0.875 0
0.375 -1 0
0.375 -0.875 0
0.5 -1 0
0.5 -0.875 0
0.375 -1 0
0.5 -1 0
0.375 -0.875 0
0.5 -0.875 0
0 -0.75 0
0 -0.625 0
0.125 -0.75 0
0.125 -0.625 0
0 -0.75 0
0.125 -0.75 0
0 -0.625 0
0.125 -0.625 0
0 -0.625 0
0 -0.5 0
0.125 -0.625 0
0.125 -0.5 0
0 -0.625 0
0.125 -0.625 0
0 -0.5 0
0.125 -0.5 0
0.875 -0.75 0
0.875 -0.625 0
1 -0.75 0
1 -0.625 0
0.875 -0.75 0
1 -0.75 0
0.875 -0.625 0
1 -0.625 0
0.875 -0.625 0
0.875 -0.5 0
1 -0.625 0
1 -0.5 0
0.875 -0.625 0
1 -0.625 0
0.875 -0.5 0
1 -0.5 0
0 -0.5 0
0 -0.375 0
0.125 -0.5 0
0.125 -0.375 0
0 -0.5 0
0.125 -0.5 0
0 -0.375 0
0.125 -0.375 0
0 -0.375 0
0 -0.25 0
0.125 -0.375 0
0.125 -0.25 0
0 -0.375 0
0.125 -0.375 0
0 -0.25 0
0.125 -0.25 0
0.25 -0.125 0
0.25 0 0
0.375 -0.125 0
0.375 0 0
0.25 -0.125 0
0.375 -0.125 0
0.25 0 0
0.375 0 0
0.375 -0.125 0
0.375 0 0
0.5 -0.125 0
0.5 0 0
0.375 -0.125 0
0.5 -0.125 0
0.375 0 0
0.5 0 0
0.875 -0.5 0
0.875 -0.375 0
1 -0.5 0
1 -0.375 0
0.875 -0.5 0
1 -0.5 0
0.875 -0.375 0
1 -0.375 0
0.875 -0.375 0
0.875 -0.25 0
1 -0.375 0
1 -0.25 0
0.875 -0.375 0
1 -0.375 0
0.875 -0.25 0
1 -0.25 0
0.5 -0.125 0
0.5 0 0
0.625 -0.125 0
0.625 0 0
0.5 -0.125 0
0.625 -0.125 0
0.5 0 0
0.625 0 0
0.625 -0.125 0
0.625 0 0
0.75 -0.125 0
0.75 0 0
0.625 -0.125 0
0.75 -0.125 0
0.625 0 0
0.75 0 0
-1 0.5 0
-1 0.625 0
-0.875 0.5 0
-0.875 0.625 0
-1 0.5 0
-0.875 0.5 0
-1 0.625 0
-0.875 0.625 0
-1 0.625 0
-1 0.75 0
-0.875 0.625 0
-0.875 0.75 0
-1 0.625 0
-0.875 0.625 0
-1 0.75 0
-0.875 0.75 0
-0.75 0.875 0
-0.75 1 0
-0.625 0.875 0
-0.625 1 0
-0.75 0.875 0
-0.625 0.875 0
-0.75 1 0
-0.625 1 0
-0.625 0.875 0
-0.625 1 0
-0.5 0.875 0
-0.5 1 0
-0.625 0.875 0
-0.5 0.875 0
-0.625 1 0
-0.5 1 0
-0.125 0.5 0
-0.125 0.625 0
0 0.5 0
0 0.625 0
-0.125 0.5 0
0 0.5 0
-0.125 0.625 0
0 0.625 0
-0.125 0.625 0
-0.125 0.75 0
0 0.625 0
0 0.75 0
-0.125 0.625 0
0 0.625 0
-0.125 0.75 0
0 0.75 0
-0.5 0.875 0
-0.5 1 0
-0.375 0.875 0
-0.375 1 0
-0.5 0.875 0
-0.375 0.875 0
-0.5 1 0
-0.375 1 0
-0.375 0.875 0
-0.375 1 0
-0.25 0.875 0
-0.25 1 0
-0.375 0.875 0
-0.25 0.875 0
-0.375 1 0
-0.25 1 0
-0.75 0 0
-0.75 0.125 0
-0.625 0 0
-0.625 0.125 0
-0.75 0 0
-0.625 0 0
-0.75 0.125 0
-0.625 0.125 0
-0.625 0 0
-0.625 0.125 0
-0.5 0 0
-0.5 0.125 0
-0.625 0 0
-0.5 0 0
-0.625 0.125 0
-0.5 0.125 0
-1 -0.75 0
-1 -0.625 0
-0.875 -0.75 0
-0.875 -0.625 0
-1 -0.75 0
-0.875 -0.75 0
-1 -0.625 0
-0.875 -0.625 0
-1 -0.625 0
-1 -0.5 0
-0.875 -0.625 0
-0.875 -0.5 0
-1 -0.625 0
-0.875 -0.625 0
-1 -0.5 0
-0.875 -0.5 0
-0.125 -0.75 0
-0.125 -0.625 0
0 -0.75 0
0 -0.625 0
-0.125 -0.75 0
0 -0.75 0
-0.125 -0.625 0
0 -0.625 0
-0.125 -0.625 0
-0.125 -0.5 0
0 -0.625 0
0 -0.5 0
-0.125 -0.625 0
0 -0.625 0
-0.125 -0.5 0
0 -0.5 0
0.5 -1 0
0.5 -0.875 0
0.625 -1 0
0.625 -0.875 0
0.5 -1 0
0.625 -1 0
0.5 -0.875 0
0.625 -0.875 0
0.625 -1 0
0.625 -0.875 0
0.75 -1 0
0.75 -0.875 0
0.625 -1 0
0.75 -1 0
0.625 -0.875 0
0.75 -0.875 0
-1 -0.25 0
-1 -0.125 0
-0.875 -0.25 0
-0.875 -0.125 0
-1 -0.25 0
-0.875 -0.25 0
-1 -0.125 0
-0.875 -0.125 0
-0.875 -0.25 0
-0.875 -0.125 0
-0.75 -0.25 0
-0.75 -0.125 0
-0.875 -0.25 0
-0.75 -0.25 0
-0.875 -0.125 0
-0.75 -0.125 0
-1 -0.125 0
-1 0 0
-0.875 -0.125 0
-0.875 0 0
-1 -0.125 0
-0.875 -0.125 0
-1 0 0
-0.875 0 0
-0.875 -0.125 0
-0.875 0 0
-0.75 -0.125 0
-0.75 0 0
-0.875 -0.125 0
-0.75 -0.125 0
-0.875 0 0
-0.75 0 0
-0.25 -0.25 0
-0.25 -0.125 0
-0.125 -0.25 0
-0.125 -0.125 0
-0.25 -0.25 0
-0.125 -0.25 0
-0.25 -0.125 0
-0.125 -0.125 0
-0.125 -0.25 0
-0.125 -0.125 0
0 -0.25 0
0 -0.125 0
-0.125 -0.25 0
0 -0.25 0
-0.125 -0.125 0
0 -0.125 0
-0.25 -0.125 0
-0.25 0 0
-0.125 -0.125 0
-0.125 0 0
-0.25 -0.125 0
-0.125 -0.125 0
-0.25 0 0
-0.125 0 0
-0.125 -0.125 0
-0.125 0 0
0 -0.125 0
0 0 0
-0.125 -0.125 0
0 -0.125 0
-0.125 0 0
0 0 0
-1 0 0
-1 0.125 0
-0.875 0 0
-0.875 0.125 0
-1 0 0
-0.875 0 0
-1 0.125 0
-0.875 0.125 0
-0.875 0 0
-0.875 0.125 0
-0.75 0 0
-0.75 0.125 0
-0.875 0 0
-0.75 0 0
-0.875 0.125 0
-0.75 0.125 0
-1 0.125 0
-1 0.25 0
-0.875 0.125 0
-0.875 0.25 0
-1 0.125 0
-0.875 0.125 0
-1 0.25 0
-0.875 0.25 0
-0.875 0.125 0
-0.875 0.25 0
-0.75 0.125 0
-0.75 0.25 0
-0.875 0.125 0
-0.75 0.125 0
-0.875 0.25 0
-0.75 0.25 0
-0.25 0 0
-0.25 0.125 0
-0.125 0 0
-0.125 0.125 0
-0.25 0 0
-0.125 0 0
-0.25 0.125 0
-0.125 0.125 0
-0.125 0 0
-0.125 0.125 0
0 0 0
0 0.125 0
-0.125 0 0
0 0 0
-0.125 0.125 0
0 0.125 0
-0.25 0.125 0
-0.25 0.25 0
-0.125 0.125 0
-0.125 0.25 0
-0.25 0.125 0
-0.125 0.125 0
-0.25 0.25 0
-0.125 0.25 0
-0.125 0.125 0
-0.125 0.25 0
0 0.125 0
0 0.25 0
-0.125 0.125 0
0 0.125 0
-0.125 0.25 0
0 0.25 0
-1 -1 0
-1 -0.875 0
-0.875 -1 0
-0.875 -0.875 0
-1 -1 0
-0.875 -1 0
-1 -0.875 0
-0.875 -0.875 0
-0.875 -1 0
-0.875 -0.875 0
-0.75 -1 0
-0.75 -0.875 0
-0.875 -1 0
-0.75 -1 0
-0.875 -0.875 0
-0.75 -0.875 0
-1 -0.875 0
-1 -0.75 0
-0.875 -0.875 0
-0.875 -0.75 0
-1 -0.875 0
-0.875 -0.875 0
-1 -0.75 0
-0.875 -0.75 0
-0.875 -0.875 0
-0.875 -0.75 0
-0.75 -0.875 0
-0.75 -0.75 0
-0.875 -0.875 0
-0.75 -0.875 0
-0.875 -0.75 0
-0.75 -0.75 0
-0.25 -1 0
-0.25 -0.875 0
-0.125 -1 0
-0.125 -0.875 0
-0.25 -1 0
-0.125 -1 0
-0.25 -0.875 0
-0.125 -0.875 0
-0.125 -1 0
-0.125 -0.875 0
0 -1 0
0 -0.875 0
-0.125 -1 0
0 -1 0
-0.125 -0.875 0
0 -0.875 0
-0.25 -0.875 0
-0.25 -0.75 0
-0.125 -0.875 0
-0.125 -0.75 0
-0.25 -0.875 0
-0.125 -0.875 0
-0.25 -0.75 0
-0.125 -0.75 0
-0.125 -0.875 0
-0.125 -0.75 0
0 -0.875 0
0 -0.75 0
-0.125 -0.875 0
0 -0.875 0
-0.125 -0.75 0
0 -0.75 0
0 -1 0
0 -0.875 0
0.125 -1 0
0.125 -0.875 0
0 -1 0
0.125 -1 0
0 -0.875 0
0.125 -0.875 0
0.125 -1 0
0.125 -0.875 0
0.25 -1 0
0.25 -0.875 0
0.125 -1 0
0.25 -1 0
0.125 -0.875 0
0.25 -0.875 0
0 -0.875 0
0 -0.75 0
0.125 -0.875 0
0.125 -0.75 0
0 -0.875 0
0.125 -0.875 0
0 -0.75 0
0.125 -0.75 0
0.125 -0.875 0
0.125 -0.75 0
0.25 -0.875 0
0.25 -0.75 0
0.125 -0.875 0
0.25 -0.875 0
0.125 -0.75 0
0.25 -0.75 0
0.75 -1 0
0.75 -0.875 0
0.875 -1 0
0.875 -0.875 0
0.75 -1 0
0.875 -1 0
0.75 -0.875 0
0.875 -0.875 0
0.875 -1 0
0.875 -0.875 0
1 -1 0
1 -0.875 0
0.875 -1 0
1 -1 0
0.875 -0.875 0
1 -0.875 0
0.75 -0.875 0
0.75 -0.75 0
0.875 -0.875 0
0.875 -0.75 0
0.75 -0.875 0
0.875 -0.875 0
0.75 -0.75 0
0.875 -0.75 0
0.875 -0.875 0
0.875 -0.75 0
1 -0.875 0
1 -0.75 0
0.875 -0.875 0
1 -0.875 0
0.875 -0.75 0
1 -0.75 0
0 -0.25 0
0 -0.125 0
0.125 -0.25 0
0.125 -0.125 0
0 -0.25 0
0.125 -0.25 0
0 -0.125 0
0.125 -0.125 0
0.125 -0.25 0
0.125 -0.125 0
0.25 -0.25 0
0.25 -0.125 0
0.125 -0.25 0
0.25 -0.25 0
0.125 -0.125 0
0.25 -0.125 0
0 -0.125 0
0 0 0
0.125 -0.125 0
0.125 0 0
0 -0.125 0
0.125 -0.125 0
0 0 0
0.125 0 0
0.125 -0.125 0
0.125 0 0
0.25 -0.125 0
0.25 0 0
0.125 -0.125 0
0.25 -0.125 0
0.125 0 0
0.25 0 0
0.75 -0.25 0
0.75 -0.125 0
0.875 -0.25 0
0.875 -0.125 0
0.75 -0.25 0
0.875 -0.25 0
0.75 -0.125 0
0.875 -0.125 0
0.875 -0.25 0
0.875 -0.125 0
1 -0.25 0
1 -0.125 0
0.875 -0.25 0
1 -0.25 0
0.875 -0.125 0
1 -0.125 0
0.75 -0.125 0
0.75 0 0
0.875 -0.125 0
0.875 0 0
0.75 -0.125 0
0.875 -0.125 0
0.75 0 0
0.875 0 0
0.875 -0.125 0
0.875 0 0
1 -0.125 0
1 0 0
0.875 -0.125 0
1 -0.125 0
[...]
POINT_DATA 5816
SCALARS u_hat double 1
LOOKUP_TABLE default
-3.65004e-05 1.61072e-05 5.59588e-16 -1.49941e-16 -4.71441e-05 6.42006e-06 5.59588e-16 -1.49941e-16 0.00197885 0.00304689 0.000491607 0.0027987 0.00198573 0.00307973 0.000551509 0.00278281 0.000491607 0.0027987 -0.00152307 0.00423802 0.0035451 0.0097208 0.000755566 -0.00055286 0.00352234 0.00994143 0.000760241 -0.000485641 0.000551509 0.00278281 -0.00119792 0.00419704 0.000760241 -0.000485641 -0.000180654 -9.91284e-05 0.000755566 -0.00055286 -0.000138193 -9.28258e-05 -0.00152307 0.00423802 -0.000294749 0.00189419 0.00972958 0.00277003 -0.000557019 0.000217902 -0.000294749 0.00189419 5.02742e-06 -1.29564e-06 0.002218 -2.89463e-05 0.000311504 4.26976e-05 -0.000180654 -9.91284e-05 7.37463e-05 -1.10495e-05 -0.000557019 0.000217902 -4.71441e-05 -2.0362e-05 7.37463e-05 -1.10495e-05 1.05362e-09 -2.80547e-10 0.000311504 4.26976e-05 -2.0362e-05 6.42006e-06 0.00996333 0.00278158 -0.000492752 0.000272372 -0.00119792 0.00419704 -0.000128798 0.00185971 -0.000492752 0.000272372 -3.65004e-05 -1.01966e-05 -0.000138193 -9.28258e-05 0.000132592 1.23368e-06 0.00215099 1.28464e-05 0.000369341 4.2786e-05 -0.000128798 0.00185971 5.02742e-06 -1.29564e-06 0.000369341 4.2786e-05 -1.01966e-05 1.61072e-05 0.000132592 1.23368e-06 1.05362e-09 -2.80547e-10 0.00427202 -0.000647248 0.125181 0.0806232 0.0347078 0.0463524 0.0274058 0.0276246 0.00384378 -0.000279842 0.0781909 0.020098 0.0274058 0.0276246 0.0126943 0.00334095 0.12665 0.0815875 0.0150838 0.006033 0.0517956 0.0365708 0.0325972 0.0282605 0.0796993 0.0210977 0.0109882 0.00200438 0.0325972 0.0282605 0.00641711 0.0130358 0.0362573 0.0519095 0.0280152 0.0328634 0.0147717 0.00578556 0.12676 0.0818515 0.0280152 0.0328634 0.0128668 0.00685207 0.0107398 0.00184581 0.0799643 0.0215362 0.00656338 0.011085 0.033176 0.0266263 0.0200317 0.0791247 0.00104673 0.0104234 0.033176 0.0266263 0.0516638 0.0363614 0.0808452 0.126721 0.005441 0.0147966 0.0516638 0.0363614 0.0325451 0.0280095 0.126723 0.0813719 0.0147717 0.00578556 0.0325451 0.0280095 0.00639779 0.0128335 0.0795872 0.0210371 0.0107398 0.00184581 -2.50868e-05 0.0043982 0.0207883 0.0790736 0.012228 0.00482115 0.0272089 0.0292933 9.21946e-05 0.00527669 0.0814816 0.126117 0.0272089 0.0292933 0.0357137 0.0472791 0.022583 0.0818819 0.00352234 0.00673189 0.00626302 0.0150311 0.0316109 0.0319749 0.083965 0.129525 0.00673189 0.00994143 0.0316109 0.0319749 0.0503145 0.0410301 0.0115577 0.00447944 0.0265428 0.0290317 -0.000142414 0.0042349 0.0197966 0.0782396 0.0265428 0.0290317 0.0352265 0.0467156 -3.63886e-05 0.00483935 0.0805822 0.125575 0.0352265 0.0467156 0.0269023 0.0289357 0.00477637 -0.000222734 0.125547 0.0811159 0.0269023 0.0289357 0.0121481 0.00470792 0.00408158 -0.000111234 0.0787077 0.0206697 0.0136303 0.00426295 0.0285155 0.0287199 0.00066052 0.0049683 0.0210261 0.0792958 0.0285155 0.0287199 0.0359008 0.0475434 0.000472607 0.00549155 0.0817272 0.126384 0.00145069 0.0107868 0.020722 0.079823 0.0114874 0.00725925 0.0269885 0.0338807 0.00580428 0.0151099 0.0815433 0.127444 0.0269885 0.0338807 0.0366727 0.0523919 0.0211288 0.0804597 0.00142198 0.00510931 0.00568296 0.0122619 0.0312428 0.0294687 0.0829226 0.128212 0.00546635 0.00810603 0.0312428 0.0294687 0.0494653 0.0394794 0.0150838 0.006033 0.127446 0.0821298 0.0366727 0.0523919 0.0282557 0.033298 0.0109882 0.00200438 0.0803509 0.0217812 0.0282557 0.033298 0.0129861 0.00714252 0.00632713 0.0150677 0.031619 0.0318886 0.0226959 0.081904 0.0035451 0.00663295 0.031619 0.0318886 0.0503675 0.0407766 0.0840324 0.129497 0.00663295 0.0097208 0.128186 0.083441 0.00810603 0.00546635 0.0494653 0.0394794 0.0311554 0.0298725 0.08092 0.021917 0.00510931 0.00142198 0.0311554 0.0298725 0.00582617 0.0126459 0.0503675 0.0407766 0.0327222 0.0302146 0.129458 0.0837534 0.00972958 0.0062498 0.0327222 0.0302146 0.00706995 0.0129811 0.0816558 0.0220056 0.0062498 0.00277003 0.00533578 0.00058601 0.126145 0.0813139 0.0357137 0.0472791 0.0271382 0.0297537 0.00484197 0.000468365 0.0789732 0.0206086 0.0271382 0.0297537 0.0121053 0.00525276 0.00643282 0.0115313 0.0320762 0.0286832 0.0211981 0.0805845 0.00142198 0.00510931 0.0320762 0.0286832 0.0493921 0.0395303 0.0830063 0.128151 0.00546635 0.00810603 0.129523 0.0836194 0.00996333 0.00637245 0.0503145 0.0410301 0.0325556 0.0304395 0.0816028 0.0218644 0.00637245 0.00278158 0.0325556 0.0304395 0.00682776 0.013058 0.0493921 0.0395303 0.0301125 0.0307641 0.128218 0.0831395 0.00810603 0.00546635 0.0301125 0.0307641 0.00477815 0.0135085 0.0806814 0.0216977 0.00510931 0.00142198 0.0110409 0.00704424 0.0265282 0.0335802 0.00104673 0.0104234 0.0204085 0.0794862 0.0265282 0.0335802 0.0362573 0.0519095 0.005441 0.0147966 0.0813261 0.126723 -0.00106015 0.00355386 0.0197034 0.0782475 0.0101513 0.00508473 0.0250529 0.0296874 -0.00100503 0.00424531 0.0806542 0.125118 0.0250529 0.0296874 0.0347078 0.0463524 0.020509 0.0794969 0.00145069 0.0107868 0.00714028 0.0114466 0.0335872 0.0268938 0.0813369 0.126613 0.00580428 0.0151099 0.0335872 0.0268938 0.0517956 0.0365708 0.0359008 0.0475434 0.0261862 0.030862 0.00545703 0.000174768 0.126321 0.0818476 0.0261862 0.030862 0.0109917 0.00606754 0.00472019 -0.000141226 0.0794398 0.0207164 -0.000126363 0.00234252 0.0147893 0.00491825 0.0126943 0.00334095 0.00426378 -0.00197096 0.0147893 0.00491825 0.150097 0.0129644 0.0130628 0.149539 0.00531239 0.0146924 -0.000117423 0.0019089 -0.000884829 0.00329001 0.00426378 -0.00197096 0.00236918 -0.000461509 -0.000884829 0.00329001 0.00656338 0.011085 0.00531239 0.0146924 0.0028146 0.00109898 0.15055 0.014121 0.0155999 0.00641565 0.150623 0.0141396 0.0155533 0.00639515 0.0155999 0.00641565 0.00205472 0.00397778 0.00641711 0.0130358 -0.000309152 0.00493287 0.00639779 0.0128335 -0.000289199 0.00483643 0.0155533 0.00639515 0.00189246 0.00391044 -0.000289199 0.00483643 0.000774579 0.00335752 -0.000309152 0.00493287 0.000704439 0.00336306 0.00190593 7.74183e-05 0.00328441 -0.000462948 0.00236918 -0.000461509 0.00406741 -0.00121216 0.00328441 -0.000462948 0.0110409 0.00704424 0.0028146 0.00109898 0.00557512 0.0151965 0.00243535 0.000242695 0.00511899 0.0156823 0.00406741 -0.00121216 0.012228 0.00482115 0.00511899 0.0156823 0.0132244 0.151018 0.00557512 0.0151965 0.013695 0.150352 0.0128668 0.00685207 0.00468792 0.0003173 0.00189246 0.00391044 0.0160064 0.00698045 0.00468792 0.0003173 0.00197885 0.00251287 0.000704439 0.00336306 -0.000188815 0.0055437 0.0145593 0.151744 0.00671394 0.0170769 0.0160064 0.00698045 0.151621 0.0156256 0.00671394 0.0170769 0.00251287 0.00304689 -0.000188815 0.0055437 0.00626302 0.0150311 0.00168356 -0.000994704 0.00335439 -0.00170736 0.0013473 -0.000426831 0.00269923 -0.00136858 0.00335439 -0.00170736 0.0115577 0.00447944 0.00184221 6.82909e-05 0.00444611 0.0147662 0.00178922 -0.000888918 0.00438569 0.014756 0.00269923 -0.00136858 0.0101513 0.00508473 0.00438569 0.014756 0.012474 0.149831 0.00444611 0.0147662 0.0125344 0.14972 0.0121481 0.00470792 0.00424417 -0.00105613 0.000154253 0.00260827 0.0155624 0.00527381 0.00424417 -0.00105613 0.0028145 -2.99217e-05 0.000247551 0.00235043 -0.000310959 0.00371813 0.0135827 0.150151 0.0057323 0.0152962 0.0155624 0.00527381 0.150812 0.0133223 0.0057323 0.0152962 0.00324749 0.00150233 -0.000310959 0.00371813 0.00714028 0.0114466 0.0028145 -2.99217e-05 0.00496968 -0.00127722 0.00235026 0.000591471 0.00372059 -0.000185639 0.00496968 -0.00127722 0.0136303 0.00426295 0.00304804 0.000817625 0.00561423 0.0157192 0.00324749 0.00150233 0.00600714 0.0153828 0.00372059 -0.000185639 0.0114874 0.00725925 0.00600714 0.0153828 0.0139845 0.150479 0.00561423 0.0157192 0.0136584 0.151044 0.0109917 0.00606754 0.00286417 -0.000826877 8.69951e-06 0.00209857 0.0157554 0.00495247 0.00286417 -0.000826877 -1.15266e-05 0.000176479 -0.00066023 0.00105352 -0.00117833 0.00298556 0.0135015 0.151108 0.00483317 0.0160921 0.0157554 0.00495247 0.151211 0.0137985 0.00483317 0.0160921 8.6761e-05 0.00141873 -0.00117833 0.00298556 0.00568296 0.0122619 0.00205472 0.00397778 0.0162689 0.00706998 0.0129861 0.00714252 0.00473577 0.000456168 0.0162689 0.00706998 0.151936 0.015685 0.0148481 0.151935 0.00684316 0.0171726 0.000774579 0.00335752 -9.43842e-05 0.00558653 0.00473577 0.000456168 0.00198573 0.00253273 -9.43842e-05 0.00558653 0.00632713 0.0150677 0.00684316 0.0171726 0.00253273 0.00307973 0.152422 0.014721 0.0167819 0.00539161 0.151812 0.0147809 0.016753 0.00578561 0.0167819 0.00539161 0.00141873 8.6761e-05 0.00582617 0.0126459 -0.000715959 0.00303525 0.00706995 0.0129811 -0.000422234 0.00347097 0.016753 0.00578561 0.002218 0.00109453 -0.000422234 0.00347097 0.000176479 -1.15266e-05 -0.000715959 0.00303525 0.00109453 -2.89463e-05 0.000645949 0.00213496 0.0155573 0.00507473 0.0121053 0.00525276 0.0034598 -0.00109117 0.0155573 0.00507473 0.150972 0.0139806 0.0132344 0.151099 0.00482663 0.0162499 -0.000162367 0.000824562 -0.00079383 0.0026528 0.0034598 -0.00109117 -1.15266e-05 0.000176479 -0.00079383 0.0026528 0.00643282 0.0115313 0.00482663 0.0162499 8.6761e-05 0.00141873 0.151424 0.0146327 0.0164721 0.00582847 0.151972 0.0147213 0.0163623 0.00544722 0.0164721 0.00582847 0.00215099 0.00108192 0.00682776 0.013058 -0.000602102 0.00348182 0.00477815 0.0135085 -0.00126489 0.00345467 0.0163623 0.00544722 0.00141873 8.6761e-05 -0.00126489 0.00345467 0.00108192 1.28464e-05 -0.000602102 0.00348182 0.000176479 -1.15266e-05 0.125181 0.102902 0.354563 0.312659 0.130574 0.301542 0.116999 0.27231 0.354563 0.312659 0.847751 0.761321 0.340008 0.786468 0.309156 0.714005 0.102902 0.0806232 0.325449 0.225535 0.116999 0.27231 0.0876344 0.202935 0.325449 0.225535 0.784479 0.545638 0.309156 0.714005 0.231971 0.531564 0.784479 0.545638 1.54615 1.09163 0.725041 1.47725 0.534239 1.11394 1.54615 1.09163 2.48031 1.80786 1.46392 2.45595 1.06492 1.86462 1.8633 1.06691 2.45592 1.4625 1.80742 2.48049 1.09052 1.54941 1.11719 0.531664 1.49399 0.712673 1.09052 1.54941 0.543966 0.786712 1.49399 0.712673 1.6438 0.784676 1.5055 1.68237 0.756051 0.854525 2.4811 1.80737 1.54861 1.09057 2.45586 1.4645 1.86499 1.06553 1.54861 1.09057 0.786989 0.54498 1.47825 0.725846 1.1148 0.534958 2.45664 1.46203 1.86532 1.06561 2.48067 1.80736 1.54959 1.09101 1.6438 0.784676 1.49452 0.712526 1.68239 1.50548 0.854502 0.756366 1.49452 0.712526 1.11821 0.531555 1.54959 1.09101 0.786908 0.544573 0.848707 0.762011 0.355798 0.313235 0.787386 0.34052 0.715105 0.309798 0.355798 0.313235 0.12665 0.104119 0.302626 0.131538 0.273531 0.117868 0.786989 0.54498 0.327238 0.225725 0.715105 0.309798 0.532679 0.232776 0.327238 0.225725 0.104119 0.0815875 0.273531 0.117868 0.204259 0.0885048 0.535535 1.11485 0.726293 1.47878 0.54526 0.787216 1.09111 1.54901 1.06752 1.86408 1.4654 2.4563 1.09111 1.54901 1.80819 2.48176 0.546917 0.785136 1.09343 1.54824 0.531648 1.11873 0.712703 1.49545 1.09343 1.54824 1.80861 2.48078 1.06604 1.86596 1.46271 2.4575 0.757597 0.854224 1.50639 1.68277 0.712703 1.49545 0.784913 1.6451 0.13165 0.30295 0.118053 0.27395 0.12676 0.104306 0.35612 0.313651 0.118053 0.27395 0.0887689 0.204784 0.104306 0.0818515 0.327655 0.226246 0.340843 0.787918 0.310215 0.715751 0.35612 0.313651 0.849237 0.762653 0.310215 0.715751 0.233298 0.533458 0.327655 0.226246 0.787632 0.545752 0.72649 1.47911 0.535732 1.11581 0.787632 0.545752 1.54947 1.09157 1.46536 2.45692 1.06654 1.86621 1.54947 1.09157 2.48216 1.80859 1.80859 2.48206 1.09246 1.55122 1.86653 1.06705 2.45802 1.46365 1.09246 1.55122 0.546297 0.788849 1.11964 0.533264 1.49614 0.714452 1.50711 1.68415 0.758312 0.856582 1.49614 0.714452 1.64555 0.78674 0.531205 1.11762 0.712163 1.49448 0.546018 0.784281 1.09279 1.54746 0.712163 1.49448 0.784201 1.64429 0.756599 0.853642 1.50585 1.68196 1.06718 1.86404 1.46273 2.45595 1.09279 1.54746 1.80904 2.4796 0.545959 0.784954 1.09175 1.54481 0.534307 1.1133 0.725234 1.47986 1.09175 1.54481 1.81001 2.48009 1.05828 1.87144 1.42834 2.49421 1.51587 1.68091 2.46859 2.73467 1.42834 2.49421 1.61376 2.71218 0.784201 1.64429 0.712095 1.49474 0.853513 0.756989 1.68195 1.50567 0.712095 1.49474 0.531164 1.11816 0.784526 0.546432 1.54752 1.09286 1.462 2.45664 1.06547 1.86527 1.54752 1.09286 2.47992 1.80792 1.8075 2.48094 1.0906 1.54839 1.86339 1.067 2.45549 1.46478 1.0906 1.54839 0.544916 0.786784 1.11433 0.535189 1.47816 0.72586 0.535379 1.11512 0.726257 1.47851 0.54678 0.785697 1.09281 1.54742 1.06609 1.86584 1.46519 2.45727 1.09281 1.54742 1.80908 2.48162 0.54496 0.787746 1.09163 1.55058 0.53266 1.11831 0.713709 1.49516 1.09163 1.55058 1.80864 2.48177 1.06803 1.86453 1.46367 2.4572 0.757087 0.855617 1.50667 1.68361 0.713709 1.49516 0.785769 1.64504 0.726561 1.48127 0.535667 1.11478 0.786284 0.547325 1.54622 1.09323 1.6151 2.71358 1.42975 2.4957 1.68225 1.51729 2.73607 2.47009 1.42975 2.4957 1.05976 1.87303 1.54622 1.09323 2.48159 1.8116 1.81063 2.48128 1.09448 1.54927 1.86563 1.06887 2.45763 1.46454 1.09448 1.54927 0.54784 0.786253 1.11932 0.533014 1.49629 0.714118 1.50766 1.68386 0.75857 0.855696 1.49629 0.714118 1.6462 0.786234 0.855598 0.757542 1.68363 1.50682 0.785769 1.64504 0.713701 1.49589 0.788084 0.545855 1.55097 1.09255 0.713701 1.49589 0.532835 1.11976 1.55097 1.09255 2.48214 1.80892 1.46337 2.4581 1.06715 1.86712 1.86713 1.0675 2.45832 1.46411 1.80888 2.48257 1.09289 1.55168 1.12033 0.533326 1.49687 0.714425 1.09289 1.55168 0.546812 0.788892 1.49687 0.714425 1.64635 0.786696 1.50751 1.6846 0.758581 0.856913 1.68384 1.50762 0.855571 0.759052 1.6462 0.786234 1.49671 0.714139 2.48177 1.8098 1.5495 1.09489 2.45848 1.46394 1.86738 1.0675 1.5495 1.09489 0.786592 0.548448 1.49671 0.714139 1.1202 0.533163 2.45809 1.46454 1.86582 1.06923 2.48258 1.80932 1.55157 1.09314 1.64635 0.786696 1.49659 0.714815 1.68452 1.50769 0.856822 0.758653 1.49659 0.714815 1.11984 0.533939 1.55157 1.09314 0.788752 0.546881 0.854359 0.757386 1.68279 1.5067 0.784913 1.6451 0.712956 1.49534 0.785117 0.546884 1.54844 1.09352 0.712956 1.49534 0.532096 1.11857 1.54844 1.09352 2.48085 1.80909 1.46355 2.4569 1.06799 1.86469 1.86466 1.0683 2.45726 1.46388 1.80918 2.4809 1.0939 1.54882 1.11847 0.533238 1.4954 0.714321 1.0939 1.54882 0.547386 0.786327 1.4954 0.714321 1.64537 0.786278 1.50716 1.68337 0.758464 0.855257 1.68413 1.50735 0.856614 0.758201 1.64555 0.78674 1.49587 0.714806 2.48204 1.80903 1.5513 1.09251 2.45746 1.46434 1.86519 1.0689 1.5513 1.09251 0.788866 0.546136 1.49587 0.714806 1.11922 0.533816 2.45776 1.46384 1.86675 1.06716 2.4813 1.80947 1.54929 1.09418 1.64537 0.786278 1.49609 0.713954 1.68349 1.50729 0.85545 0.758417 1.49609 0.713954 1.11974 0.532776 1.54929 1.09418 0.786552 0.547698 0.532359 0.231753 0.714582 0.309268 0.543966 0.786712 0.224739 0.327096 0.714582 0.309268 0.787741 0.341043 0.756051 0.854525 0.311581 0.357247 0.204166 0.0873494 0.273478 0.117219 0.224739 0.327096 0.0808452 0.103783 0.273478 0.117219 0.302651 0.131684 0.311581 0.357247 0.103783 0.126721 0.787741 0.341043 0.71453 0.309816 0.854502 0.756366 0.357221 0.311882 0.71453 0.309816 0.532316 0.23276 0.786908 0.544573 0.327304 0.225342 0.302651 0.131684 0.273328 0.117871 0.357221 0.311882 0.126723 0.104048 0.273328 0.117871 0.204093 0.0883961 0.327304 0.225342 0.104048 0.0813719 0.0814816 0.103799 0.226692 0.326042 0.0880218 0.204292 0.117536 0.273545 0.226692 0.326042 0.546917 0.785136 0.232613 0.532698 0.309705 0.715187 0.103799 0.126117 0.312669 0.356745 0.117536 0.273545 0.131443 0.302857 0.312669 0.356745 0.757597 0.854224 0.309705 0.715187 0.341048 0.788617 0.546297 0.788849 0.227425 0.329618 0.534018 0.234825 0.71645 0.312143 0.227425 0.329618 0.083965 0.106745 0.206071 0.0909019 0.275558 0.120719 0.758312 0.856582 0.314224 0.359691 0.71645 0.312143 0.789806 0.343512 0.314224 0.359691 0.106745 0.129525 0.275558 0.120719 0.304993 0.134629 0.0868785 0.203706 0.116575 0.273036 0.0805822 0.103079 0.225753 0.325246 0.116575 0.273036 0.130879 0.302226 0.103079 0.125575 0.311789 0.356209 0.23121 0.532348 0.308646 0.714655 0.225753 0.325246 0.546018 0.784281 0.308646 0.714655 0.34042 0.787909 0.311789 0.356209 0.756599 0.853642 0.130879 0.302226 0.117068 0.273018 0.125547 0.103331 0.356114 0.31214 0.117068 0.273018 0.0876607 0.203879 0.103331 0.0811159 0.325513 0.226277 0.34042 0.787909 0.309178 0.714584 0.356114 0.31214 0.853513 0.756989 0.309178 0.714584 0.232199 0.532215 0.325513 0.226277 0.784526 0.546432 0.0887311 0.204048 0.118154 0.27349 0.0817272 0.104056 0.22665 0.32663 0.118154 0.27349 0.131765 0.302771 0.104056 0.126384 0.313839 0.355795 0.233083 0.532704 0.310334 0.715223 0.22665 0.32663 0.54678 0.785697 0.310334 0.715223 0.341234 0.78775 0.313839 0.355795 0.76254 0.849033 0.0815433 0.104494 0.225593 0.327976 0.0880491 0.205021 0.117928 0.274362 0.225593 0.327976 0.54496 0.787746 0.232607 0.533356 0.310149 0.715622 0.104494 0.127444 0.312462 0.358164 0.117928 0.274362 0.132407 0.303572 0.312462 0.358164 0.757087 0.855617 0.310149 0.715622 0.34196 0.788841 0.54784 0.786253 0.227757 0.327429 0.534168 0.233185 0.716625 0.310813 0.227757 0.327429 0.0829226 0.105567 0.205696 0.089097 0.275226 0.119065 0.75857 0.855696 0.313979 0.358491 0.716625 0.310813 0.789964 0.342667 0.313979 0.358491 0.105567 0.128212 0.275226 0.119065 0.304494 0.133452 0.127446 0.104788 0.358139 0.312847 0.132407 0.303572 0.118611 0.274295 0.358139 0.312847 0.855598 0.757542 0.34196 0.788841 0.31078 0.715713 0.104788 0.0821298 0.328266 0.22636 0.118611 0.274295 0.0891514 0.205107 0.328266 0.22636 0.788084 0.545855 0.31078 0.715713 0.233774 0.533594 0.534435 0.234865 0.716929 0.312075 0.546812 0.788892 0.227808 0.329517 0.716929 0.312075 0.790409 0.343394 0.758581 0.856913 0.314389 0.35983 0.206244 0.0909271 0.275776 0.120654 0.227808 0.329517 0.0840324 0.106765 0.275776 0.120654 0.305269 0.134509 0.314389 0.35983 0.106765 0.129497 0.855571 0.759052 0.358397 0.314365 0.789964 0.342667 0.71665 0.311377 0.358397 0.314365 0.128186 0.105813 0.304494 0.133452 0.275244 0.119547 0.786592 0.548448 0.32773 0.228349 0.71665 0.311377 0.534224 0.234235 0.32773 0.228349 0.105813 0.083441 0.275244 0.119547 0.205935 0.0898539 0.790409 0.343394 0.71734 0.311597 0.856822 0.758653 0.359785 0.314334 0.71734 0.311597 0.535095 0.234075 0.788752 0.546881 0.329335 0.227715 0.305269 0.134509 0.27621 0.11999 0.359785 0.314334 0.129458 0.106606 0.27621 0.11999 0.206868 0.0899047 0.329335 0.227715 0.106606 0.0837534 0.126145 0.103729 0.356843 0.31251 0.131443 0.302857 0.117223 0.273765 0.356843 0.31251 0.854359 0.757386 0.341048 0.788617 0.309366 0.715461 0.103729 0.0813139 0.32598 0.226569 0.117223 0.273765 0.087598 0.204538 0.32598 0.226569 0.785117 0.546884 0.309366 0.715461 0.232027 0.533281 0.53388 0.23328 0.716238 0.310923 0.547386 0.786327 0.227496 0.327616 0.716238 0.310923 0.789362 0.342758 0.758464 0.855257 0.313941 0.358254 0.205921 0.0889459 0.275213 0.119005 0.227496 0.327616 0.0830063 0.105579 0.275213 0.119005 0.304207 0.133515 0.313941 0.358254 0.105579 0.128151 0.856614 0.758201 0.359719 0.314075 0.789806 0.343512 0.716722 0.311746 0.359719 0.314075 0.129523 0.106571 0.304993 0.134629 0.275864 0.120155 0.788866 0.546136 0.329562 0.227132 0.716722 0.311746 0.534508 0.234121 0.329562 0.227132 0.106571 0.0836194 0.275864 0.120155 0.206452 0.090026 0.789362 0.342758 0.71595 0.311449 0.85545 0.758417 0.35837 0.313974 0.71595 0.311449 0.533564 0.234165 0.786552 0.547698 0.327777 0.227733 0.304207 0.133515 0.274679 0.119761 0.35837 0.313974 0.128218 0.105679 0.274679 0.119761 0.205132 0.0900926 0.327777 0.227733 0.105679 0.0831395 0.0781909 0.0491444 0.241465 0.134283 0.0876344 0.202935 0.051531 0.127063 0.241465 0.134283 0.582332 0.324044 0.231971 0.531564 0.145512 0.322614 0.0491444 0.020098 0.144599 0.0685333 0.051531 0.127063 0.0130628 0.0813011 0.144599 0.0685333 0.344973 0.160618 0.145512 0.322614 0.0813011 0.149539 0.582332 0.324044 1.15022 0.647965 0.534239 1.11394 0.324272 0.685145 1.15022 0.647965 1.8633 1.06691 1.06492 1.86462 0.645863 1.15279 0.344973 0.160618 0.685338 0.32423 0.324272 0.685145 0.16028 0.345359 0.685338 0.32423 1.11719 0.531664 0.645863 1.15279 0.322211 0.584