# vtk DataFile Version 3.0
#This file was generated by the deal.II library on 2020/8/22 at 21:54:03
ASCII
DATASET UNSTRUCTURED_GRID

POINTS 256 double
-1 -1 0
-0.833333 -1 0
-0.666667 -1 0
-0.5 -1 0
-1 -0.833333 0
-0.833333 -0.833333 0
-0.666667 -0.833333 0
-0.5 -0.833333 0
-1 -0.666667 0
-0.833333 -0.666667 0
-0.666667 -0.666667 0
-0.5 -0.666667 0
-1 -0.5 0
-0.833333 -0.5 0
-0.666667 -0.5 0
-0.5 -0.5 0
-0.5 -1 0
-0.333333 -1 0
-0.166667 -1 0
0 -1 0
-0.5 -0.833333 0
-0.333333 -0.833333 0
-0.166667 -0.833333 0
0 -0.833333 0
-0.5 -0.666667 0
-0.333333 -0.666667 0
-0.166667 -0.666667 0
0 -0.666667 0
-0.5 -0.5 0
-0.333333 -0.5 0
-0.166667 -0.5 0
0 -0.5 0
-1 -0.5 0
-0.833333 -0.5 0
-0.666667 -0.5 0
-0.5 -0.5 0
-1 -0.333333 0
-0.833333 -0.333333 0
-0.666667 -0.333333 0
-0.5 -0.333333 0
-1 -0.166667 0
-0.833333 -0.166667 0
-0.666667 -0.166667 0
-0.5 -0.166667 0
-1 0 0
-0.833333 0 0
-0.666667 0 0
-0.5 0 0
-0.5 -0.5 0
-0.333333 -0.5 0
-0.166667 -0.5 0
0 -0.5 0
-0.5 -0.333333 0
-0.333333 -0.333333 0
-0.166667 -0.333333 0
0 -0.333333 0
-0.5 -0.166667 0
-0.333333 -0.166667 0
-0.166667 -0.166667 0
0 -0.166667 0
-0.5 0 0
-0.333333 0 0
-0.166667 0 0
0 0 0
0 -1 0
0.166667 -1 0
0.333333 -1 0
0.5 -1 0
0 -0.833333 0
0.166667 -0.833333 0
0.333333 -0.833333 0
0.5 -0.833333 0
0 -0.666667 0
0.166667 -0.666667 0
0.333333 -0.666667 0
0.5 -0.666667 0
0 -0.5 0
0.166667 -0.5 0
0.333333 -0.5 0
0.5 -0.5 0
0.5 -1 0
0.666667 -1 0
0.833333 -1 0
1 -1 0
0.5 -0.833333 0
0.666667 -0.833333 0
0.833333 -0.833333 0
1 -0.833333 0
0.5 -0.666667 0
0.666667 -0.666667 0
0.833333 -0.666667 0
1 -0.666667 0
0.5 -0.5 0
0.666667 -0.5 0
0.833333 -0.5 0
1 -0.5 0
0 -0.5 0
0.166667 -0.5 0
0.333333 -0.5 0
0.5 -0.5 0
0 -0.333333 0
0.166667 -0.333333 0
0.333333 -0.333333 0
0.5 -0.333333 0
0 -0.166667 0
0.166667 -0.166667 0
0.333333 -0.166667 0
0.5 -0.166667 0
0 0 0
0.166667 0 0
0.333333 0 0
0.5 0 0
0.5 -0.5 0
0.666667 -0.5 0
0.833333 -0.5 0
1 -0.5 0
0.5 -0.333333 0
0.666667 -0.333333 0
0.833333 -0.333333 0
1 -0.333333 0
0.5 -0.166667 0
0.666667 -0.166667 0
0.833333 -0.166667 0
1 -0.166667 0
0.5 0 0
0.666667 0 0
0.833333 0 0
1 0 0
-1 0 0
-0.833333 0 0
-0.666667 0 0
-0.5 0 0
-1 0.166667 0
-0.833333 0.166667 0
-0.666667 0.166667 0
-0.5 0.166667 0
-1 0.333333 0
-0.833333 0.333333 0
-0.666667 0.333333 0
-0.5 0.333333 0
-1 0.5 0
-0.833333 0.5 0
-0.666667 0.5 0
-0.5 0.5 0
-0.5 0 0
-0.333333 0 0
-0.166667 0 0
0 0 0
-0.5 0.166667 0
-0.333333 0.166667 0
-0.166667 0.166667 0
0 0.166667 0
-0.5 0.333333 0
-0.333333 0.333333 0
-0.166667 0.333333 0
0 0.333333 0
-0.5 0.5 0
-0.333333 0.5 0
-0.166667 0.5 0
0 0.5 0
-1 0.5 0
-0.833333 0.5 0
-0.666667 0.5 0
-0.5 0.5 0
-1 0.666667 0
-0.833333 0.666667 0
-0.666667 0.666667 0
-0.5 0.666667 0
-1 0.833333 0
-0.833333 0.833333 0
-0.666667 0.833333 0
-0.5 0.833333 0
-1 1 0
-0.833333 1 0
-0.666667 1 0
-0.5 1 0
-0.5 0.5 0
-0.333333 0.5 0
-0.166667 0.5 0
0 0.5 0
-0.5 0.666667 0
-0.333333 0.666667 0
-0.166667 0.666667 0
0 0.666667 0
-0.5 0.833333 0
-0.333333 0.833333 0
-0.166667 0.833333 0
0 0.833333 0
-0.5 1 0
-0.333333 1 0
-0.166667 1 0
0 1 0
0 0 0
0.166667 0 0
0.333333 0 0
0.5 0 0
0 0.166667 0
0.166667 0.166667 0
0.333333 0.166667 0
0.5 0.166667 0
0 0.333333 0
0.166667 0.333333 0
0.333333 0.333333 0
0.5 0.333333 0
0 0.5 0
0.166667 0.5 0
0.333333 0.5 0
0.5 0.5 0
0.5 0 0
0.666667 0 0
0.833333 0 0
1 0 0
0.5 0.166667 0
0.666667 0.166667 0
0.833333 0.166667 0
1 0.166667 0
0.5 0.333333 0
0.666667 0.333333 0
0.833333 0.333333 0
1 0.333333 0
0.5 0.5 0
0.666667 0.5 0
0.833333 0.5 0
1 0.5 0
0 0.5 0
0.166667 0.5 0
0.333333 0.5 0
0.5 0.5 0
0 0.666667 0
0.166667 0.666667 0
0.333333 0.666667 0
0.5 0.666667 0
0 0.833333 0
0.166667 0.833333 0
0.333333 0.833333 0
0.5 0.833333 0
0 1 0
0.166667 1 0
0.333333 1 0
0.5 1 0
0.5 0.5 0
0.666667 0.5 0
0.833333 0.5 0
1 0.5 0
0.5 0.666667 0
0.666667 0.666667 0
0.833333 0.666667 0
1 0.666667 0
0.5 0.833333 0
0.666667 0.833333 0
0.833333 0.833333 0
1 0.833333 0
0.5 1 0
0.666667 1 0
0.833333 1 0
1 1 0

CELLS 144 720
4	0	1	5	4
4	1	2	6	5
4	2	3	7	6
4	4	5	9	8
4	5	6	10	9
4	6	7	11	10
4	8	9	13	12
4	9	10	14	13
4	10	11	15	14
4	16	17	21	20
4	17	18	22	21
4	18	19	23	22
4	20	21	25	24
4	21	22	26	25
4	22	23	27	26
4	24	25	29	28
4	25	26	30	29
4	26	27	31	30
4	32	33	37	36
4	33	34	38	37
4	34	35	39	38
4	36	37	41	40
4	37	38	42	41
4	38	39	43	42
4	40	41	45	44
4	41	42	46	45
4	42	43	47	46
4	48	49	53	52
4	49	50	54	53
4	50	51	55	54
4	52	53	57	56
4	53	54	58	57
4	54	55	59	58
4	56	57	61	60
4	57	58	62	61
4	58	59	63	62
4	64	65	69	68
4	65	66	70	69
4	66	67	71	70
4	68	69	73	72
4	69	70	74	73
4	70	71	75	74
4	72	73	77	76
4	73	74	78	77
4	74	75	79	78
4	80	81	85	84
4	81	82	86	85
4	82	83	87	86
4	84	85	89	88
4	85	86	90	89
4	86	87	91	90
4	88	89	93	92
4	89	90	94	93
4	90	91	95	94
4	96	97	101	100
4	97	98	102	101
4	98	99	103	102
4	100	101	105	104
4	101	102	106	105
4	102	103	107	106
4	104	105	109	108
4	105	106	110	109
4	106	107	111	110
4	112	113	117	116
4	113	114	118	117
4	114	115	119	118
4	116	117	121	120
4	117	118	122	121
4	118	119	123	122
4	120	121	125	124
4	121	122	126	125
4	122	123	127	126
4	128	129	133	132
4	129	130	134	133
4	130	131	135	134
4	132	133	137	136
4	133	134	138	137
4	134	135	139	138
4	136	137	141	140
4	137	138	142	141
4	138	139	143	142
4	144	145	149	148
4	145	146	150	149
4	146	147	151	150
4	148	149	153	152
4	149	150	154	153
4	150	151	155	154
4	152	153	157	156
4	153	154	158	157
4	154	155	159	158
4	160	161	165	164
4	161	162	166	165
4	162	163	167	166
4	164	165	169	168
4	165	166	170	169
4	166	167	171	170
4	168	169	173	172
4	169	170	174	173
4	170	171	175	174
4	176	177	181	180
4	177	178	182	181
4	178	179	183	182
4	180	181	185	184
4	181	182	186	185
4	182	183	187	186
4	184	185	189	188
4	185	186	190	189
4	186	187	191	190
4	192	193	197	196
4	193	194	198	197
4	194	195	199	198
4	196	197	201	200
4	197	198	202	201
4	198	199	203	202
4	200	201	205	204
4	201	202	206	205
4	202	203	207	206
4	208	209	213	212
4	209	210	214	213
4	210	211	215	214
4	212	213	217	216
4	213	214	218	217
4	214	215	219	218
4	216	217	221	220
4	217	218	222	221
4	218	219	223	222
4	224	225	229	228
4	225	226	230	229
4	226	227	231	230
4	228	229	233	232
4	229	230	234	233
4	230	231	235	234
4	232	233	237	236
4	233	234	238	237
4	234	235	239	238
4	240	241	245	244
4	241	242	246	245
4	242	243	247	246
4	244	245	249	248
4	245	246	250	249
4	246	247	251	250
4	248	249	253	252
4	249	250	254	253
4	250	251	255	254

CELL_TYPES 144
 9 9 9 9 9 9 9 9 9 9 9 9 9 9 9 9 9 9 9 9 9 9 9 9 9 9 9 9 9 9 9 9 9 9 9 9 9 9 9 9 9 9 9 9 9 9 9 9 9 9 9 9 9 9 9 9 9 9 9 9 9 9 9 9 9 9 9 9 9 9 9 9 9 9 9 9 9 9 9 9 9 9 9 9 9 9 9 9 9 9 9 9 9 9 9 9 9 9 9 9 9 9 9 9 9 9 9 9 9 9 9 9 9 9 9 9 9 9 9 9 9 9 9 9 9 9 9 9 9 9 9 9 9 9 9 9 9 9 9 9 9 9 9 9
POINT_DATA 256
VECTORS gradient double
-0.319158 0.115689 0
0.137964 0.00566304 0
0.0705688 -0.306872 0
-0.156338 -0.489016 0
-0.355643 0.3458 0
-0.584347 -0.379215 0
-1.25123 -2.26273 0
-0.403392 -5.72734 0
-0.652563 0.238185 0
-2.45487 -1.11841 0
-7.07288 -6.85061 0
-1.62597 -16.4411 0
-0.788082 -0.0810208 0
-5.81327 -0.336979 0
-16.5222 -1.46224 0
-3.20662 -3.00974 0
0.071102 -0.485875 0
-0.164593 -0.375052 0
-0.255838 -0.124403 0
0.0587393 -0.104797 0
0.228623 -5.69455 0
1.09854 -2.32288 0
0.425174 -0.447438 0
0.0532317 0.218859 0
1.41299 -16.3838 0
6.88549 -6.94962 0
2.30271 -1.16278 0
0.267716 0.124415 0
2.85252 -3.01793 0
16.312 -1.40007 0
5.69709 -0.321955 0
0.287012 -0.0976829 0
-0.783123 0.162593 0
-5.85784 0.323765 0
-16.5929 1.60777 0
-3.19498 3.05459 0
-0.600828 -0.272337 0
-2.37998 1.1084 0
-7.00945 6.88275 0
-1.62841 16.4394 0
-0.218447 -0.438133 0
-0.529286 0.366015 0
-1.24945 2.20235 0
-0.431751 5.70657 0
-0.116145 -0.0754227 0
0.230562 0.0306378 0
0.129708 0.29068 0
-0.185892 0.385529 0
2.8673 3.04208 0
16.3806 1.55643 0
5.73824 0.295112 0
0.297535 0.15872 0
1.35738 16.3859 0
6.81983 6.95423 0
2.2242 1.12904 0
0.26742 -0.156914 0
0.210903 5.67603 0
1.07518 2.26237 0
0.373228 0.416618 0
0.0355989 -0.307583 0
0.065188 0.369812 0
-0.267119 0.328185 0
-0.373202 0.0794017 0
-0.0126006 0.0340141 0
-0.139795 -0.115902 0
0.220396 -0.205061 0
0.0566706 -0.562147 0
-0.367651 -0.707449 0
-0.238828 0.26064 0
-0.567254 -0.489267 0
-1.29902 -2.32378 0
-0.497191 -5.78127 0
-0.493348 0.175876 0
-2.39312 -1.19679 0
-7.05982 -6.94807 0
-1.76768 -16.5225 0
-0.584133 -0.134386 0
-5.89137 -0.375602 0
-16.6103 -1.56862 0
-3.20953 -3.13259 0
-0.122923 -0.711371 0
-0.417862 -0.529753 0
-0.480768 -0.172921 0
-0.201808 -0.0516553 0
0.163526 -5.73781 0
0.973562 -2.35935 0
0.282849 -0.487935 0
-0.0103379 0.17723 0
1.30333 -16.451 0
6.70971 -6.99764 0
2.13331 -1.17989 0
0.124032 0.127625 0
2.8522 -3.14249 0
16.3063 -1.5603 0
5.62873 -0.327923 0
0.570125 -0.0341466 0
-0.565959 0.116595 0
-5.85673 0.264884 0
-16.5486 1.40928 0
-3.1968 2.91431 0
-0.524118 -0.216739 0
-2.44754 1.12963 0
-7.12637 6.87288 0
-1.7087 16.439 0
-0.266002 -0.338867 0
-0.602268 0.426105 0
-1.29704 2.25568 0
-0.44028 5.78858 0
-0.19352 -0.0256982 0
0.10313 0.111716 0
-0.00542224 0.328235 0
-0.273171 0.605873 0
2.85785 2.89838 0
16.2399 1.46919 0
5.58944 0.27756 0
0.561338 0.0636409 0
1.24718 16.3701 0
6.81282 6.94059 0
2.18449 1.15502 0
0.176898 -0.12564 0
0.159791 5.75061 0
1.02647 2.33414 0
0.328919 0.486459 0
0.0265972 -0.196991 0
-0.0970239 0.603526 0
-0.265937 0.323759 0
-0.340885 0.130105 0
-0.169724 -0.0118375 0
-0.104944 -0.274265 0
0.188764 -0.2617 0
0.0782624 -0.470634 0
-0.150402 -0.485838 0
-0.123402 0.0428979 0
-0.475004 -0.640997 0
-1.20598 -2.51877 0
-0.370463 -5.91098 0
-0.384768 -0.0506166 0
-2.35599 -1.32694 0
-6.99392 -7.12028 0
-1.44559 -16.5468 0
-0.518758 -0.297681 0
-5.7417 -0.479874 0
-16.433 -1.67646 0
-3.06007 -3.11679 0
0.105618 -0.493806 0
-0.210427 -0.463646 0
-0.369667 -0.222525 0
-0.0658595 -0.147145 0
0.244066 -5.94805 0
1.08159 -2.43647 0
0.376884 -0.57961 0
0.0754012 0.157424 0
1.50275 -16.6067 0
6.91235 -7.05101 0
2.214 -1.28855 0
0.32408 0.0794778 0
2.98391 -3.13028 0
16.3622 -1.60799 0
5.66759 -0.431821 0
0.650393 -0.225072 0
-0.52007 -0.068396 0
-5.77479 0.15072 0
-16.4897 1.3628 0
-3.05025 2.93869 0
-0.377266 -0.329793 0
-2.33325 0.958353 0
-6.90708 6.7598 0
-1.49342 16.2168 0
-0.1117 -0.478669 0
-0.483801 0.221542 0
-1.17963 2.05443 0
-0.338463 5.4619 0
-0.0374636 -0.285297 0
0.193579 -0.090232 0
0.187789 0.066689 0
0.00807054 0.53397 0
2.99414 2.92556 0
16.4147 1.37825 0
5.69766 0.196358 0
0.655984 -0.0443891 0
1.5675 16.2795 0
6.87942 6.72451 0
2.21076 1.00093 0
0.355473 -0.345603 0
0.293795 5.5061 0
1.14799 2.03062 0
0.45445 0.269319 0
0.144798 -0.43291 0
0.103751 0.538474 0
-0.169469 0.0961484 0
-0.243112 -0.021414 0
-0.0178917 -0.219363 0
-0.204303 -0.163812 0
-0.109655 -0.0462766 0
-0.132979 -0.0499155 0
-0.16931 0.222741 0
-0.0881068 -0.072331 0
-0.106026 -0.0692596 0
-0.113239 -0.0830321 0
-0.123756 -0.0574734 0
-0.091919 -0.106142 0
-0.120309 -0.088088 0
-0.0992408 -0.0741912 0
-0.106561 -0.0659433 0
0.169034 -0.162196 0
-0.0936227 -0.116123 0
-0.0905494 -0.0970854 0
-0.0964736 -0.0858992 0
-0.096105 0.213777 0
-0.123288 -0.0162849 0
-0.156659 0.00843427 0
-0.113077 -0.0492321 0
-0.10761 -0.0552761 0
-0.114026 -0.054598 0
-0.120289 -0.0173713 0
-0.115167 -0.0120629 0
-0.0981246 -0.0580253 0
-0.100235 -0.0434156 0
-0.0990646 -0.0210343 0
-0.100596 -0.00109615 0
-0.0785961 -0.0852083 0
-0.0669756 -0.0542639 0
-0.0703927 -0.0254346 0
-0.0754451 -0.000817382 0
0.177011 -0.0798107 0
-0.0873693 -0.0969488 0
-0.0814205 -0.0876383 0
-0.09519 -0.0671643 0
-0.0645723 -0.151157 0
-0.0876938 -0.12784 0
-0.0640253 -0.104818 0
-0.0636212 -0.0671875 0
-0.00398146 -0.202789 0
-0.0323349 -0.146045 0
-0.0320024 -0.111026 0
-0.0306433 -0.0750204 0
-0.0632964 -0.147566 0
-0.0163573 -0.136294 0
-0.00208364 -0.107672 0
-0.00102586 -0.0741397 0
-0.080092 -0.069159 0
-0.0757114 -0.0460215 0
-0.0741971 -0.0230242 0
-0.0778134 -0.000529104 0
-0.0559252 -0.0756761 0
-0.0516785 -0.0501446 0
-0.0503012 -0.0252393 0
-0.0531012 1.13455e-05 0
-0.0284672 -0.0786379 0
-0.025948 -0.051693 0
-0.0249729 -0.026043 0
-0.0265194 -5.672e-05 0
-0.000744047 -0.0763561 0
-1.39738e-05 -0.0491171 0
3.13894e-05 -0.0244246 0
0.000101992 -9.60511e-05 0
SCALARS solution double 1
LOOKUP_TABLE default
-0.243465 -0.217306 -0.253199 -0.219059 -0.263332 -0.163236 -0.0357435 0.209152 -0.330378 -0.0626177 0.642992 1.93895 -0.319379 0.163449 1.88941 4.76299 -0.219628 -0.237868 -0.185031 -0.183228 0.205253 -0.00687718 -0.111998 -0.172874 1.92777 0.682036 -0.00436489 -0.222632 4.74369 1.94515 0.229796 -0.192322 -0.315358 0.167359 1.90527 4.78406 -0.335644 -0.0625746 0.621601 1.92748 -0.25393 -0.158137 -0.0415235 0.217054 -0.229244 -0.217357 -0.269985 -0.233718 4.76471 1.95939 0.232881 -0.189957 1.91733 0.664048 -0.000340625 -0.225587 0.213291 -0.00739914 -0.0999532 -0.163268 -0.233077 -0.248605 -0.171953 -0.161662 -0.186884 -0.17548 -0.220989 -0.165459 -0.177784 -0.0844362 0.0438517 0.304258 -0.236922 0.0243122 0.718135 2.02994 -0.208924 0.273735 2.01384 4.89759 -0.16936 -0.148268 -0.0545978 -0.0168964 0.300296 0.100987 0.0207329 -0.0236661 2.01426 0.792694 0.136514 -0.057595 4.87608 2.07676 0.366271 -0.0544299 -0.208313 0.26952 2.00221 4.87555 -0.23244 0.0402829 0.741687 2.06402 -0.163083 -0.0615875 0.0687648 0.326055 -0.155393 -0.133991 -0.15946 -0.111636 4.85403 2.06436 0.362363 -0.0539426 2.04988 0.810816 0.14457 -0.0602376 0.322607 0.115739 0.0277467 -0.0243614 -0.114866 -0.105252 -0.0409317 -0.0123719 -0.225584 -0.21245 -0.255692 -0.217075 -0.1917 -0.116235 -0.00254358 0.239362 -0.208947 0.0258096 0.721331 1.99203 -0.154095 0.27767 2.00837 4.83198 -0.214717 -0.241442 -0.169645 -0.155443 0.241999 0.0176185 -0.0750453 -0.141724 2.00479 0.719026 0.0536459 -0.178553 4.85013 2.01233 0.308466 -0.145039 -0.15312 0.281438 2.0197 4.85071 -0.147609 0.0817971 0.77131 2.02511 -0.062133 0.00838632 0.124701 0.353326 -0.0161129 -0.0238051 -0.0639631 -0.0722214 4.86888 2.02274 0.312278 -0.144574 2.03946 0.761019 0.09588 -0.134041 0.356393 0.129408 0.0205542 -0.0519019 -0.0697099 -0.0756051 -0.0304289 -0.0157165 -0.140535 -0.10775 -0.0941268 -0.0577318 -0.114339 -0.0949678 -0.0782861 -0.055955 -0.106159 -0.083568 -0.0668977 -0.0482398 -0.0727817 -0.0639798 -0.0510797 -0.0324004 -0.05878 -0.0504149 -0.0216189 -0.00542938 -0.0566354 -0.0399236 -0.0193951 -0.00104144 -0.0497564 -0.033205 -0.0165271 -0.000128554 -0.0351582 -0.0236029 -0.0121744 -1.18667e-05 -0.0719218 -0.0641718 -0.0525047 -0.0352278 -0.0648791 -0.0477938 -0.0365527 -0.0245769 -0.0280309 -0.0233543 -0.018273 -0.0126096 -0.00723558 -0.00151373 -0.000195538 -3.37951e-06 -0.0379794 -0.025024 -0.0125744 -3.38869e-05 -0.0259356 -0.0170034 -0.00854573 -2.07395e-05 -0.0129861 -0.008467 -0.00424681 -1.39997e-05 -2.20016e-05 8.20534e-06 9.63522e-06 -3.45152e-06 
SCALARS u_post double 1
LOOKUP_TABLE default
-0.217999 -0.196695 -0.186527 -0.172129 -0.242917 -0.203939 -0.0842368 0.041649 -0.256556 -0.115151 0.775779 1.76884 -0.256101 -0.00905518 1.7368 3.73946 -0.170878 -0.168672 -0.161736 -0.155212 0.0411139 -0.0584519 -0.152698 -0.155768 1.76944 0.812975 -0.0519212 -0.154506 3.73746 1.78046 0.0591287 -0.144367 -0.25316 -0.0107594 1.73827 3.73693 -0.250445 -0.117463 0.764376 1.75545 -0.225999 -0.203983 -0.0925215 0.0329308 -0.196636 -0.195625 -0.187198 -0.16954 3.73507 1.78183 0.0574752 -0.141698 1.75605 0.804772 -0.0503568 -0.147147 0.0324309 -0.0614586 -0.145508 -0.139656 -0.168179 -0.162911 -0.147027 -0.127257 -0.154346 -0.147612 -0.135883 -0.103426 -0.156069 -0.130273 -0.0110173 0.126148 -0.154167 -0.0266922 0.860885 1.8629 -0.144792 0.0896045 1.8418 3.85051 -0.106276 -0.074674 -0.0363314 0.00219466 0.127851 0.0485587 -0.0189304 -0.000271482 1.8615 0.925509 0.0868617 0.00689021 3.85274 1.90651 0.201806 0.000186189 -0.143314 0.0891356 1.84244 3.84835 -0.146907 -0.0139841 0.881438 1.88481 -0.139706 -0.106177 0.0189372 0.154139 -0.125817 -0.109064 -0.0859898 -0.0637028 3.85041 1.90714 0.201319 0.00149973 1.88351 0.940849 0.0918149 0.0064672 0.155806 0.0682237 -0.0109267 -0.000288738 -0.0664129 -0.0422328 -0.0242978 0.00376322 -0.197509 -0.195318 -0.187546 -0.169085 -0.168378 -0.156928 -0.0500932 0.0687253 -0.139741 -0.025769 0.852264 1.82736 -0.105276 0.113588 1.85009 3.82581 -0.166296 -0.163107 -0.147523 -0.125771 0.0670978 -0.0326201 -0.119652 -0.115471 1.82877 0.858786 -0.000200556 -0.0977935 3.82307 1.84933 0.131115 -0.0806627 -0.106267 0.114075 1.84955 3.82748 -0.0805735 0.0333257 0.904172 1.87212 -0.0441261 -0.0312818 0.0710458 0.183756 0.0026892 -0.000164646 0.00721651 -0.00163832 3.82454 1.84884 0.131531 -0.0816001 1.87364 0.902948 0.0451541 -0.05585 0.182103 0.0729922 -0.0232064 -0.0316778 0.00125113 0.00674151 -0.000654053 0.00484751 -0.130719 -0.107546 -0.0889869 -0.0574721 -0.114164 -0.0969151 -0.0782658 -0.05999 -0.101018 -0.0835215 -0.0649642 -0.0480186 -0.0726907 -0.0680042 -0.0509663 -0.0373551 -0.0576469 -0.0457636 -0.0227651 -0.00129132 -0.0598938 -0.0402058 -0.0202276 0.000242079 -0.0480064 -0.0322754 -0.0163152 -1.70459e-05 -0.0376689 -0.0250914 -0.0126145 -0.000116462 -0.07248 -0.0679857 -0.0509327 -0.0376556 -0.0597397 -0.047808 -0.0356106 -0.0259748 -0.0297285 -0.0244192 -0.0181108 -0.013028 -0.0016384 0.000316427 -3.36447e-05 -0.000132013 -0.0380184 -0.0250363 -0.0125871 -1.26832e-05 -0.0259246 -0.0169968 -0.00855014 2.49838e-06 -0.0129959 -0.00846681 -0.00424935 -2.47221e-06 -1.96975e-05 5.03204e-06 -2.69158e-06 8.33138e-07 
