# vtk DataFile Version 3.0
#This file was generated by the deal.II library on 2020/8/22 at 21:53:34
ASCII
DATASET UNSTRUCTURED_GRID

POINTS 1544 double
0.5 0.5 0
0.5 1 0
1 0.5 0
1 1 0
0.5 0.5 0
1 0.5 0
0.5 1 0
1 1 0
-1 -0.25 0
-1 0 0
-0.75 -0.25 0
-0.75 0 0
-1 -0.25 0
-0.75 -0.25 0
-1 0 0
-0.75 0 0
-0.25 -0.25 0
-0.25 0 0
0 -0.25 0
0 0 0
-0.25 -0.25 0
0 -0.25 0
-0.25 0 0
0 0 0
-1 0 0
-1 0.25 0
-0.75 0 0
-0.75 0.25 0
-1 0 0
-0.75 0 0
-1 0.25 0
-0.75 0.25 0
-0.75 0 0
-0.75 0.25 0
-0.5 0 0
-0.5 0.25 0
-0.75 0 0
-0.5 0 0
-0.75 0.25 0
-0.5 0.25 0
-0.25 0 0
-0.25 0.25 0
0 0 0
0 0.25 0
-0.25 0 0
0 0 0
-0.25 0.25 0
0 0.25 0
-1 -1 0
-1 -0.75 0
-0.75 -1 0
-0.75 -0.75 0
-1 -1 0
-0.75 -1 0
-1 -0.75 0
-0.75 -0.75 0
-1 -0.75 0
-1 -0.5 0
-0.75 -0.75 0
-0.75 -0.5 0
-1 -0.75 0
-0.75 -0.75 0
-1 -0.5 0
-0.75 -0.5 0
-0.25 -1 0
-0.25 -0.75 0
0 -1 0
0 -0.75 0
-0.25 -1 0
0 -1 0
-0.25 -0.75 0
0 -0.75 0
-0.25 -0.75 0
-0.25 -0.5 0
0 -0.75 0
0 -0.5 0
-0.25 -0.75 0
0 -0.75 0
-0.25 -0.5 0
0 -0.5 0
0 -1 0
0 -0.75 0
0.25 -1 0
0.25 -0.75 0
0 -1 0
0.25 -1 0
0 -0.75 0
0.25 -0.75 0
0.5 -1 0
0.5 -0.75 0
0.75 -1 0
0.75 -0.75 0
0.5 -1 0
0.75 -1 0
0.5 -0.75 0
0.75 -0.75 0
0.75 -1 0
0.75 -0.75 0
1 -1 0
1 -0.75 0
0.75 -1 0
1 -1 0
0.75 -0.75 0
1 -0.75 0
0 -0.25 0
0 0 0
0.25 -0.25 0
0.25 0 0
0 -0.25 0
0.25 -0.25 0
0 0 0
0.25 0 0
0.75 -0.25 0
0.75 0 0
1 -0.25 0
1 0 0
0.75 -0.25 0
1 -0.25 0
0.75 0 0
1 0 0
-1 0.75 0
-1 1 0
-0.75 0.75 0
-0.75 1 0
-1 0.75 0
-0.75 0.75 0
-1 1 0
-0.75 1 0
-0.25 0.75 0
-0.25 1 0
0 0.75 0
0 1 0
-0.25 0.75 0
0 0.75 0
-0.25 1 0
0 1 0
0 0 0
0 0.25 0
0.25 0 0
0.25 0.25 0
0 0 0
0.25 0 0
0 0.25 0
0.25 0.25 0
0.25 0 0
0.25 0.25 0
0.5 0 0
0.5 0.25 0
0.25 0 0
0.5 0 0
0.25 0.25 0
0.5 0.25 0
0 0.25 0
0 0.5 0
0.25 0.25 0
0.25 0.5 0
0 0.25 0
0.25 0.25 0
0 0.5 0
0.25 0.5 0
0.25 0.25 0
0.25 0.5 0
0.5 0.25 0
0.5 0.5 0
0.25 0.25 0
0.5 0.25 0
0.25 0.5 0
0.5 0.5 0
0.5 0 0
0.5 0.25 0
0.75 0 0
0.75 0.25 0
0.5 0 0
0.75 0 0
0.5 0.25 0
0.75 0.25 0
0.75 0 0
0.75 0.25 0
1 0 0
1 0.25 0
0.75 0 0
1 0 0
0.75 0.25 0
1 0.25 0
0.5 0.25 0
0.5 0.5 0
0.75 0.25 0
0.75 0.5 0
0.5 0.25 0
0.75 0.25 0
0.5 0.5 0
0.75 0.5 0
0.75 0.25 0
0.75 0.5 0
1 0.25 0
1 0.5 0
0.75 0.25 0
1 0.25 0
0.75 0.5 0
1 0.5 0
0 0.5 0
0 0.75 0
0.25 0.5 0
0.25 0.75 0
0 0.5 0
0.25 0.5 0
0 0.75 0
0.25 0.75 0
0.25 0.5 0
0.25 0.75 0
0.5 0.5 0
0.5 0.75 0
0.25 0.5 0
0.5 0.5 0
0.25 0.75 0
0.5 0.75 0
0 0.75 0
0 1 0
0.25 0.75 0
0.25 1 0
0 0.75 0
0.25 0.75 0
0 1 0
0.25 1 0
0.25 0.75 0
0.25 1 0
0.5 0.75 0
0.5 1 0
0.25 0.75 0
0.5 0.75 0
0.25 1 0
0.5 1 0
-1 -0.5 0
-1 -0.375 0
-0.875 -0.5 0
-0.875 -0.375 0
-1 -0.5 0
-0.875 -0.5 0
-1 -0.375 0
-0.875 -0.375 0
-0.875 -0.5 0
-0.875 -0.375 0
-0.75 -0.5 0
-0.75 -0.375 0
-0.875 -0.5 0
-0.75 -0.5 0
-0.875 -0.375 0
-0.75 -0.375 0
-1 -0.375 0
-1 -0.25 0
-0.875 -0.375 0
-0.875 -0.25 0
-1 -0.375 0
-0.875 -0.375 0
-1 -0.25 0
-0.875 -0.25 0
-0.875 -0.375 0
-0.875 -0.25 0
-0.75 -0.375 0
-0.75 -0.25 0
-0.875 -0.375 0
-0.75 -0.375 0
-0.875 -0.25 0
-0.75 -0.25 0
-0.75 -0.5 0
-0.75 -0.375 0
-0.625 -0.5 0
-0.625 -0.375 0
-0.75 -0.5 0
-0.625 -0.5 0
-0.75 -0.375 0
-0.625 -0.375 0
-0.75 -0.375 0
-0.75 -0.25 0
-0.625 -0.375 0
-0.625 -0.25 0
-0.75 -0.375 0
-0.625 -0.375 0
-0.75 -0.25 0
-0.625 -0.25 0
-0.625 -0.375 0
-0.625 -0.25 0
-0.5 -0.375 0
-0.5 -0.25 0
-0.625 -0.375 0
-0.5 -0.375 0
-0.625 -0.25 0
-0.5 -0.25 0
-0.375 -0.5 0
-0.375 -0.375 0
-0.25 -0.5 0
-0.25 -0.375 0
-0.375 -0.5 0
-0.25 -0.5 0
-0.375 -0.375 0
-0.25 -0.375 0
-0.5 -0.375 0
-0.5 -0.25 0
-0.375 -0.375 0
-0.375 -0.25 0
-0.5 -0.375 0
-0.375 -0.375 0
-0.5 -0.25 0
-0.375 -0.25 0
-0.375 -0.375 0
-0.375 -0.25 0
-0.25 -0.375 0
-0.25 -0.25 0
-0.375 -0.375 0
-0.25 -0.375 0
-0.375 -0.25 0
-0.25 -0.25 0
-0.25 -0.5 0
-0.25 -0.375 0
-0.125 -0.5 0
-0.125 -0.375 0
-0.25 -0.5 0
-0.125 -0.5 0
-0.25 -0.375 0
-0.125 -0.375 0
-0.125 -0.5 0
-0.125 -0.375 0
0 -0.5 0
0 -0.375 0
-0.125 -0.5 0
0 -0.5 0
-0.125 -0.375 0
0 -0.375 0
-0.25 -0.375 0
-0.25 -0.25 0
-0.125 -0.375 0
-0.125 -0.25 0
-0.25 -0.375 0
-0.125 -0.375 0
-0.25 -0.25 0
-0.125 -0.25 0
-0.125 -0.375 0
-0.125 -0.25 0
0 -0.375 0
0 -0.25 0
-0.125 -0.375 0
0 -0.375 0
-0.125 -0.25 0
0 -0.25 0
-0.75 0.25 0
-0.75 0.375 0
-0.625 0.25 0
-0.625 0.375 0
-0.75 0.25 0
-0.625 0.25 0
-0.75 0.375 0
-0.625 0.375 0
-0.625 0.25 0
-0.625 0.375 0
-0.5 0.25 0
-0.5 0.375 0
-0.625 0.25 0
-0.5 0.25 0
-0.625 0.375 0
-0.5 0.375 0
-0.75 0.375 0
-0.75 0.5 0
-0.625 0.375 0
-0.625 0.5 0
-0.75 0.375 0
-0.625 0.375 0
-0.75 0.5 0
-0.625 0.5 0
-0.5 0 0
-0.5 0.125 0
-0.375 0 0
-0.375 0.125 0
-0.5 0 0
-0.375 0 0
-0.5 0.125 0
-0.375 0.125 0
-0.375 0 0
-0.375 0.125 0
-0.25 0 0
-0.25 0.125 0
-0.375 0 0
-0.25 0 0
-0.375 0.125 0
-0.25 0.125 0
-0.5 0.125 0
-0.5 0.25 0
-0.375 0.125 0
-0.375 0.25 0
-0.5 0.125 0
-0.375 0.125 0
-0.5 0.25 0
-0.375 0.25 0
-0.375 0.125 0
-0.375 0.25 0
-0.25 0.125 0
-0.25 0.25 0
-0.375 0.125 0
-0.25 0.125 0
-0.375 0.25 0
-0.25 0.25 0
-0.5 0.25 0
-0.5 0.375 0
-0.375 0.25 0
-0.375 0.375 0
-0.5 0.25 0
-0.375 0.25 0
-0.5 0.375 0
-0.375 0.375 0
-0.375 0.25 0
-0.375 0.375 0
-0.25 0.25 0
-0.25 0.375 0
-0.375 0.25 0
-0.25 0.25 0
-0.375 0.375 0
-0.25 0.375 0
-0.375 0.375 0
-0.375 0.5 0
-0.25 0.375 0
-0.25 0.5 0
-0.375 0.375 0
-0.25 0.375 0
-0.375 0.5 0
-0.25 0.5 0
-0.75 -0.75 0
-0.75 -0.625 0
-0.625 -0.75 0
-0.625 -0.625 0
-0.75 -0.75 0
-0.625 -0.75 0
-0.75 -0.625 0
-0.625 -0.625 0
-0.625 -0.75 0
-0.625 -0.625 0
-0.5 -0.75 0
-0.5 -0.625 0
-0.625 -0.75 0
-0.5 -0.75 0
-0.625 -0.625 0
-0.5 -0.625 0
-0.75 -0.625 0
-0.75 -0.5 0
-0.625 -0.625 0
-0.625 -0.5 0
-0.75 -0.625 0
-0.625 -0.625 0
-0.75 -0.5 0
-0.625 -0.5 0
-0.5 -0.75 0
-0.5 -0.625 0
-0.375 -0.75 0
-0.375 -0.625 0
-0.5 -0.75 0
-0.375 -0.75 0
-0.5 -0.625 0
-0.375 -0.625 0
-0.375 -0.75 0
-0.375 -0.625 0
-0.25 -0.75 0
-0.25 -0.625 0
-0.375 -0.75 0
-0.25 -0.75 0
-0.375 -0.625 0
-0.25 -0.625 0
-0.375 -0.625 0
-0.375 -0.5 0
-0.25 -0.625 0
-0.25 -0.5 0
-0.375 -0.625 0
-0.25 -0.625 0
-0.375 -0.5 0
-0.25 -0.5 0
0.25 -0.75 0
0.25 -0.625 0
0.375 -0.75 0
0.375 -0.625 0
0.25 -0.75 0
0.375 -0.75 0
0.25 -0.625 0
0.375 -0.625 0
0.375 -0.75 0
0.375 -0.625 0
0.5 -0.75 0
0.5 -0.625 0
0.375 -0.75 0
0.5 -0.75 0
0.375 -0.625 0
0.5 -0.625 0
0.25 -0.625 0
0.25 -0.5 0
0.375 -0.625 0
0.375 -0.5 0
0.25 -0.625 0
0.375 -0.625 0
0.25 -0.5 0
0.375 -0.5 0
0.5 -0.75 0
0.5 -0.625 0
0.625 -0.75 0
0.625 -0.625 0
0.5 -0.75 0
0.625 -0.75 0
0.5 -0.625 0
0.625 -0.625 0
0.625 -0.75 0
0.625 -0.625 0
0.75 -0.75 0
0.75 -0.625 0
0.625 -0.75 0
0.75 -0.75 0
0.625 -0.625 0
0.75 -0.625 0
0.625 -0.625 0
0.625 -0.5 0
0.75 -0.625 0
0.75 -0.5 0
0.625 -0.625 0
0.75 -0.625 0
0.625 -0.5 0
0.75 -0.5 0
0.25 -0.5 0
0.25 -0.375 0
0.375 -0.5 0
0.375 -0.375 0
0.25 -0.5 0
0.375 -0.5 0
0.25 -0.375 0
0.375 -0.375 0
0.25 -0.375 0
0.25 -0.25 0
0.375 -0.375 0
0.375 -0.25 0
0.25 -0.375 0
0.375 -0.375 0
0.25 -0.25 0
0.375 -0.25 0
0.375 -0.375 0
0.375 -0.25 0
0.5 -0.375 0
0.5 -0.25 0
0.375 -0.375 0
0.5 -0.375 0
0.375 -0.25 0
0.5 -0.25 0
0.625 -0.5 0
0.625 -0.375 0
0.75 -0.5 0
0.75 -0.375 0
0.625 -0.5 0
0.75 -0.5 0
0.625 -0.375 0
0.75 -0.375 0
0.5 -0.375 0
0.5 -0.25 0
0.625 -0.375 0
0.625 -0.25 0
0.5 -0.375 0
0.625 -0.375 0
0.5 -0.25 0
0.625 -0.25 0
0.625 -0.375 0
0.625 -0.25 0
0.75 -0.375 0
0.75 -0.25 0
0.625 -0.375 0
0.75 -0.375 0
0.625 -0.25 0
0.75 -0.25 0
-0.75 0.5 0
-0.75 0.625 0
-0.625 0.5 0
-0.625 0.625 0
-0.75 0.5 0
-0.625 0.5 0
-0.75 0.625 0
-0.625 0.625 0
-0.75 0.625 0
-0.75 0.75 0
-0.625 0.625 0
-0.625 0.75 0
-0.75 0.625 0
-0.625 0.625 0
-0.75 0.75 0
-0.625 0.75 0
-0.625 0.625 0
-0.625 0.75 0
-0.5 0.625 0
-0.5 0.75 0
-0.625 0.625 0
-0.5 0.625 0
-0.625 0.75 0
-0.5 0.75 0
-0.375 0.5 0
-0.375 0.625 0
-0.25 0.5 0
-0.25 0.625 0
-0.375 0.5 0
-0.25 0.5 0
-0.375 0.625 0
-0.25 0.625 0
-0.5 0.625 0
-0.5 0.75 0
-0.375 0.625 0
-0.375 0.75 0
-0.5 0.625 0
-0.375 0.625 0
-0.5 0.75 0
-0.375 0.75 0
-0.375 0.625 0
-0.375 0.75 0
-0.25 0.625 0
-0.25 0.75 0
-0.375 0.625 0
-0.25 0.625 0
-0.375 0.75 0
-0.25 0.75 0
-0.75 -0.25 0
-0.75 -0.125 0
-0.625 -0.25 0
-0.625 -0.125 0
-0.75 -0.25 0
-0.625 -0.25 0
-0.75 -0.125 0
-0.625 -0.125 0
-0.625 -0.25 0
-0.625 -0.125 0
-0.5 -0.25 0
-0.5 -0.125 0
-0.625 -0.25 0
-0.5 -0.25 0
-0.625 -0.125 0
-0.5 -0.125 0
-0.75 -0.125 0
-0.75 0 0
-0.625 -0.125 0
-0.625 0 0
-0.75 -0.125 0
-0.625 -0.125 0
-0.75 0 0
-0.625 0 0
-0.625 -0.125 0
-0.625 0 0
-0.5 -0.125 0
-0.5 0 0
-0.625 -0.125 0
-0.5 -0.125 0
-0.625 0 0
-0.5 0 0
-0.5 -0.25 0
-0.5 -0.125 0
-0.375 -0.25 0
-0.375 -0.125 0
-0.5 -0.25 0
-0.375 -0.25 0
-0.5 -0.125 0
-0.375 -0.125 0
-0.375 -0.25 0
-0.375 -0.125 0
-0.25 -0.25 0
-0.25 -0.125 0
-0.375 -0.25 0
-0.25 -0.25 0
-0.375 -0.125 0
-0.25 -0.125 0
-0.5 -0.125 0
-0.5 0 0
-0.375 -0.125 0
-0.375 0 0
-0.5 -0.125 0
-0.375 -0.125 0
-0.5 0 0
-0.375 0 0
-0.375 -0.125 0
-0.375 0 0
-0.25 -0.125 0
-0.25 0 0
-0.375 -0.125 0
-0.25 -0.125 0
-0.375 0 0
-0.25 0 0
-1 0.25 0
-1 0.375 0
-0.875 0.25 0
-0.875 0.375 0
-1 0.25 0
-0.875 0.25 0
-1 0.375 0
-0.875 0.375 0
-0.875 0.25 0
-0.875 0.375 0
-0.75 0.25 0
-0.75 0.375 0
-0.875 0.25 0
-0.75 0.25 0
-0.875 0.375 0
-0.75 0.375 0
-1 0.375 0
-1 0.5 0
-0.875 0.375 0
-0.875 0.5 0
-1 0.375 0
-0.875 0.375 0
-1 0.5 0
-0.875 0.5 0
-0.875 0.375 0
-0.875 0.5 0
-0.75 0.375 0
-0.75 0.5 0
-0.875 0.375 0
-0.75 0.375 0
-0.875 0.5 0
-0.75 0.5 0
-0.25 0.25 0
-0.25 0.375 0
-0.125 0.25 0
-0.125 0.375 0
-0.25 0.25 0
-0.125 0.25 0
-0.25 0.375 0
-0.125 0.375 0
-0.125 0.25 0
-0.125 0.375 0
0 0.25 0
0 0.375 0
-0.125 0.25 0
0 0.25 0
-0.125 0.375 0
0 0.375 0
-0.25 0.375 0
-0.25 0.5 0
-0.125 0.375 0
-0.125 0.5 0
-0.25 0.375 0
-0.125 0.375 0
-0.25 0.5 0
-0.125 0.5 0
-0.125 0.375 0
-0.125 0.5 0
0 0.375 0
0 0.5 0
-0.125 0.375 0
0 0.375 0
-0.125 0.5 0
0 0.5 0
-0.75 -1 0
-0.75 -0.875 0
-0.625 -1 0
-0.625 -0.875 0
-0.75 -1 0
-0.625 -1 0
-0.75 -0.875 0
-0.625 -0.875 0
-0.625 -1 0
-0.625 -0.875 0
-0.5 -1 0
-0.5 -0.875 0
-0.625 -1 0
-0.5 -1 0
-0.625 -0.875 0
-0.5 -0.875 0
-0.75 -0.875 0
-0.75 -0.75 0
-0.625 -0.875 0
-0.625 -0.75 0
-0.75 -0.875 0
-0.625 -0.875 0
-0.75 -0.75 0
-0.625 -0.75 0
-0.625 -0.875 0
-0.625 -0.75 0
-0.5 -0.875 0
-0.5 -0.75 0
-0.625 -0.875 0
-0.5 -0.875 0
-0.625 -0.75 0
-0.5 -0.75 0
-0.5 -1 0
[...]
POINT_DATA 1544
SCALARS u_hat double 1
LOOKUP_TABLE default
-0.00839429 -3.25813e-06 5.59588e-16 -1.49941e-16 -0.00819293 -7.19893e-05 5.59588e-16 -1.49941e-16 -0.0800662 -0.0281732 0.046622 -0.0739543 -0.0710007 0.0401691 -0.0311266 -0.0586807 0.0608999 -0.0493198 -0.0508539 -0.012169 0.0606692 -0.0435814 -0.0552447 -0.0120353 -0.0314192 -0.0626244 0.00913519 0.00765575 -0.0311266 -0.0586807 -0.0562995 0.0561503 0.00913519 0.00765575 -0.064426 0.429467 -0.0693686 -0.0514748 0.0768705 0.933103 -0.0480694 0.0749382 -0.0192537 -0.0321488 -0.0552447 -0.0120353 0.07546 -0.0341609 -0.0444316 -0.0753815 -0.0747594 0.0307031 -0.040752 -0.0780308 -0.0241688 -0.0210795 -0.113108 -0.126906 0.0555137 0.897128 -0.0241688 -0.0210795 -0.0933839 0.390135 -0.0618935 0.0484019 -0.0176333 -0.0470662 -0.0684846 -0.0182642 -9.34769e-06 0.0208399 0.0690884 0.921745 -0.0576732 -0.0430588 -9.34769e-06 0.0208399 0.41836 -0.0559403 -0.0176333 -0.0470662 -0.0393017 0.0690304 -0.0150431 -0.0484069 -0.0622109 0.0757139 -0.0455905 0.433178 0.0335965 0.0330141 -0.0787478 -0.0529013 0.940504 0.109353 0.0335965 0.0330141 -0.000213178 0.00104074 -0.0157233 0.0143725 0.0848664 -0.0126277 -0.0508539 -0.012169 0.0834721 -0.031849 -0.0452743 0.0831973 -0.0191728 -0.0290842 0.102989 -0.0200797 0.00104074 -0.000213178 0.100965 -0.0108908 -0.0153681 0.00629367 -0.0317979 0.0112672 0.0931979 -0.0119745 -0.0300201 0.092858 -0.000213178 0.00104074 0.0964473 -0.0105523 -0.0178902 0.00685153 0.0981979 -0.0216634 0.00104074 -0.000213178 -0.0192537 -0.0321488 -0.0224695 -0.0157927 -0.0191728 -0.0290842 -0.0250291 -0.0156458 -0.0224695 -0.0157927 -0.0145513 -0.00728206 -0.0181488 -0.00266337 -0.0175798 -0.0119123 -0.0210598 -0.00541312 -0.0177111 -0.0128931 -0.0250291 -0.0156458 -0.0170788 -0.00824952 -0.0177111 -0.0128931 -0.0118753 -0.00831415 -0.0175798 -0.0119123 -0.0127596 -0.00827071 -0.0145513 -0.00728206 -0.00938615 -0.00428762 -0.00247939 -0.00505218 -0.0118852 -0.00615839 -0.00938615 -0.00428762 5.02742e-06 -1.29564e-06 -0.0153681 0.00629367 -0.00591419 0.00012091 -0.0118753 -0.00831415 -0.00598406 -0.00415053 -0.0118852 -0.00615839 -0.00819293 -0.00413246 -0.00598406 -0.00415053 1.05362e-09 -2.80547e-10 -0.00591419 0.00012091 -0.00413246 -7.19893e-05 -0.00516443 -0.00717008 -0.0128902 -0.00702325 -0.0170788 -0.00824952 -0.0113054 -0.00513891 -0.0128902 -0.00702325 -0.00839429 -0.00419877 -0.0127596 -0.00827071 -0.00676473 -0.00420636 -0.0178902 0.00685153 -0.00700438 0.000362457 -0.0113054 -0.00513891 5.02742e-06 -1.29564e-06 -0.00700438 0.000362457 -0.00419877 -3.25813e-06 -0.00676473 -0.00420636 1.05362e-09 -2.80547e-10 -0.026742 -0.0583256 0.0915735 0.00638453 -0.0933839 0.148376 -0.0438275 -0.0149173 0.0915735 0.00638453 0.827208 0.442132 0.148376 0.390135 0.0638874 0.343268 -0.0539516 -0.0599136 0.033272 -0.0462085 -0.0438275 -0.0149173 -0.0710007 -0.0154158 0.033272 -0.0462085 0.536316 0.0317997 0.0638874 0.343268 -0.0154158 0.0401691 0.827208 0.442132 2.81004 1.76713 0.500635 2.73206 0.293902 1.87317 0.536316 0.0317997 1.86758 0.319574 0.293902 1.87317 0.0263219 0.553706 1.86758 0.319574 2.73663 0.516037 1.76526 2.81916 0.454249 0.889139 2.82476 1.77576 0.856741 0.458323 2.74564 0.519941 1.88554 0.313701 2.73663 0.516037 1.88273 0.326028 2.81869 1.77588 0.888476 0.46718 1.88273 0.326028 0.560805 0.0466645 1.88554 0.313701 0.565634 0.0445859 0.856741 0.458323 0.125391 0.0312104 0.41836 0.18121 0.366371 0.0889516 0.125391 0.0312104 -0.000648281 -0.0271817 0.18121 -0.0559403 0.0135143 -0.0181738 0.560805 0.0466645 0.0602342 -0.024552 0.366371 0.0889516 0.0606692 0.00854388 0.0602342 -0.024552 -0.0178688 -0.0320519 0.0135143 -0.0181738 0.00854388 -0.0435814 0.044998 0.572618 0.338471 1.90311 0.0768705 0.504987 0.345016 1.90213 0.338471 1.90311 0.531243 2.76783 0.504987 0.933103 1.79492 2.84492 0.48856 0.910375 1.79745 2.84927 0.345016 1.90213 0.541603 2.77383 -0.064426 0.182521 -0.0245993 0.0165371 -0.00900847 -0.0336188 0.126616 0.0342701 -0.0245993 0.0165371 -0.0480694 0.0134344 -0.0242984 -0.0362897 0.0632692 -0.019698 0.182521 0.429467 0.0920017 0.379253 0.126616 0.0342701 0.868059 0.471335 0.0920017 0.379253 0.0134344 0.0749382 0.0632692 -0.019698 0.573802 0.0610813 0.531243 2.76783 0.326665 1.90915 0.868059 0.471335 2.84709 1.79953 0.326665 1.90915 0.0590438 0.590005 0.573802 0.0610813 1.90651 0.350697 1.79951 2.85416 0.491691 0.924421 1.90651 0.350697 2.7724 0.551776 0.0555137 0.476321 0.318358 1.86983 0.0225089 0.542168 0.312203 1.87001 0.318358 1.86983 0.511917 2.74075 0.458443 0.881548 1.76681 2.81759 0.476321 0.897128 1.76637 2.80744 0.312203 1.87001 0.500635 2.73206 0.511917 2.74075 0.326599 1.88155 0.880453 0.470096 2.81677 1.77702 0.326599 1.88155 0.0690884 0.495417 0.554191 0.0371648 1.88272 0.328944 1.7744 2.82258 0.495417 0.921745 1.88272 0.328944 2.74564 0.519941 0.0552218 0.581133 0.330361 1.90812 0.0607029 0.572869 0.347072 1.9027 0.330361 1.90812 0.543738 2.77352 0.47866 0.870443 1.80222 2.85164 0.481704 0.915404 1.80022 2.85321 0.347072 1.9027 0.542264 2.77097 0.543738 2.77352 0.360898 1.91693 0.940504 0.524928 2.84904 1.81343 0.360898 1.91693 0.0763299 0.593693 0.524928 0.109353 1.91695 0.369937 1.81378 2.86341 0.510043 0.931297 1.91695 0.369937 2.78725 0.561382 0.914861 0.49293 2.85297 1.80974 0.542264 2.77097 0.351586 1.91929 0.590592 0.0680117 1.92178 0.356528 0.351586 1.91929 0.0698637 0.595767 1.92178 0.356528 2.78461 0.555919 1.80915 2.8643 0.500126 0.931341 2.86247 1.82286 0.930157 0.518819 2.78725 0.561382 1.93065 0.370469 2.78461 0.555919 1.92708 0.371075 2.86339 1.82096 0.930404 0.509893 1.92708 0.371075 0.604516 0.0912673 1.93065 0.370469 0.604302 0.0876792 0.91142 0.500832 2.8499 1.81351 0.541603 2.77383 0.356913 1.91873 0.586214 0.0839171 1.91508 0.370679 0.356913 1.91873 0.0806722 0.599404 1.91508 0.370679 2.77921 0.561046 1.81424 2.85632 0.511302 0.92771 2.85483 1.8137 0.925008 0.502177 2.7724 0.551776 1.91888 0.366519 2.77921 0.561046 1.9242 0.364845 2.85752 1.81514 0.92931 0.511208 1.9242 0.364845 0.600563 0.0814898 1.91888 0.366519 0.599329 0.0872856 0.046622 -0.0136662 0.374971 0.0441752 0.0263219 0.553706 -0.0476946 0.0342763 0.374971 0.0441752 0.599501 0.0915153 0.454249 0.889139 0.00215737 0.092433 -0.0136662 -0.0739543 -0.0240629 -0.0450099 -0.0476946 0.0342763 -0.0693686 -0.0604217 -0.0240629 -0.0450099 0.00326382 -0.0127256 0.00215737 0.092433 -0.0604217 -0.0514748 0.599501 0.0915153 0.384209 0.0597497 0.888476 0.46718 0.0928714 0.0169735 0.384209 0.0597497 0.0608999 0.00579007 0.565634 0.0445859 0.0514183 -0.0288346 0.00326382 -0.0127256 -0.00757033 -0.0107219 0.0928714 0.0169735 -0.00900847 -0.0336188 -0.00757033 -0.0107219 0.00579007 -0.0493198 0.0514183 -0.0288346 -0.0242984 -0.0362897 -0.0439046 -0.0294421 -0.0314752 0.0549082 -0.0562995 -7.45608e-05 -0.0123474 -0.00370826 -0.0314752 0.0549082 0.044998 0.572618 -7.45608e-05 0.0561503 0.066693 0.397949 -0.0382006 -0.0185323 0.0291081 0.111624 -0.0123474 -0.00370826 0.0082934 0.0214606 0.0291081 0.111624 0.48856 0.910375 0.066693 0.397949 0.113614 0.629247 0.0590438 0.590005 -0.013268 0.0740211 0.07546 0.0206496 0.408649 0.0844848 -0.013268 0.0740211 -0.0210598 -0.0132364 0.0206496 -0.0341609 0.0122678 0.0079387 0.491691 0.924421 0.0422016 0.128299 0.408649 0.0844848 0.635399 0.128111 0.0422016 0.128299 -0.0132364 -0.00541312 0.0122678 0.0079387 0.0350367 0.0245363 -0.0747594 -0.0220282 -0.032799 -0.0283153 -0.0616449 -0.0504323 -0.0523777 0.0300634 -0.032799 -0.0283153 -0.0172873 -0.00633507 -0.0587777 -0.0441027 0.00464201 0.0845121 -0.0220282 0.0307031 0.0412642 0.371661 -0.0523777 0.0300634 0.0225089 0.542168 0.0412642 0.371661 0.0860318 0.599245 0.00464201 0.0845121 0.458443 0.881548 -0.0172873 -0.00633507 -0.0278498 -0.0205197 -0.0442118 -0.0538383 0.0840392 0.0123402 -0.0278498 -0.0205197 -0.0618935 -0.00674581 -0.0450324 -0.0497493 0.0381692 -0.0380401 0.0860318 0.599245 0.0499465 0.379448 0.0840392 0.0123402 0.880453 0.470096 0.0499465 0.379448 -0.00674581 0.0484019 0.0381692 -0.0380401 0.554191 0.0371648 -0.0393017 0.0148643 -0.00364252 0.0233249 -0.028325 -0.0137055 -0.0158673 0.0716137 -0.00364252 0.0233249 -0.0455905 0.193794 -0.0181438 0.021348 0.0446951 0.137025 0.0148643 0.0690304 0.102161 0.379691 -0.0158673 0.0716137 0.0607029 0.572869 0.102161 0.379691 0.193794 0.433178 0.0446951 0.137025 0.47866 0.870443 -0.0576732 -0.050366 -0.027166 0.0533271 -0.0622109 0.00675149 -0.0348766 -0.00495534 -0.027166 0.0533271 0.0552218 0.581133 0.00675149 0.0757139 0.063246 0.402535 -0.050366 -0.0430588 0.0212303 0.110011 -0.0348766 -0.00495534 -0.00432491 0.0208058 0.0212303 0.110011 0.481704 0.915404 0.063246 0.402535 0.10907 0.625995 0.0763299 0.593693 0.00607423 0.0854397 0.0848664 0.0361193 0.423332 0.0968125 0.00607423 0.0854397 0.00142198 0.00510931 0.0361193 -0.0126277 0.0272662 0.0261302 0.510043 0.931297 0.0605156 0.137237 0.423332 0.0968125 0.649147 0.139203 0.0605156 0.137237 0.00546635 0.00810603 0.0272662 0.0261302 0.0471791 0.0387235 -0.000648281 -0.0271817 0.110367 0.0327811 -0.00432491 0.0208058 -0.00427716 0.00806092 0.110367 0.0327811 0.914861 0.49293 0.10907 0.625995 0.0754849 0.409421 -0.0178688 -0.0320519 0.0670853 -0.0156149 -0.00427716 0.00806092 -0.0452743 0.0189615 0.0670853 -0.0156149 0.590592 0.0680117 0.0754849 0.409421 0.0189615 0.0831973 0.0834721 0.0258116 0.417216 0.0889603 0.0698637 0.595767 -0.00731519 0.0783006 0.417216 0.0889603 0.643928 0.130855 0.500126 0.931341 0.0480162 0.131922 0.0258116 -0.031849 0.0172697 0.0107707 -0.00731519 0.0783006 -0.0181488 -0.0104061 0.0172697 0.0107707 0.0393797 0.027108 0.0480162 0.131922 -0.0104061 -0.00266337 0.930157 0.518819 0.136892 0.0648769 0.649147 0.139203 0.429982 0.102193 0.136892 0.0648769 0.00810603 0.00546635 0.0471791 0.0387235 0.0318073 0.0255826 0.604516 0.0912673 0.0901528 0.0140597 0.429982 0.102193 0.100965 0.0450373 0.0901528 0.0140597 0.00510931 0.00142198 0.0318073 0.0255826 0.0450373 -0.0108908 0.643928 0.130855 0.429187 0.0940796 0.930404 0.509893 0.13166 0.0560901 0.429187 0.0940796 0.102989 0.0414545 0.604302 0.0876792 0.0858836 0.00882529 0.0393797 0.027108 0.0262754 0.0165143 0.13166 0.0560901 -0.00247939 -0.00376579 0.0262754 0.0165143 0.0414545 -0.0200797 0.0858836 0.00882529 -0.00376579 -0.00505218 -0.0184225 -0.0225707 0.112232 0.044309 0.0082934 0.0214606 0.00303276 0.0116647 0.112232 0.044309 0.91142 0.500832 0.113614 0.629247 0.0808409 0.415682 -0.0144726 -0.0152963 0.0697167 0.000838384 0.00303276 0.0116647 -0.0300201 0.031419 0.0697167 0.000838384 0.586214 0.0839171 0.0808409 0.415682 0.031419 0.092858 0.0931979 0.0406117 0.425063 0.0978282 0.0806722 0.599404 0.00897355 0.0878612 0.425063 0.0978282 0.644985 0.139884 0.511302 0.92771 0.0610494 0.136803 0.0406117 -0.0119745 0.0296948 0.0248705 0.00897355 0.0878612 0.00142198 0.00510931 0.0296948 0.0248705 0.0465267 0.0387331 0.0610494 0.136803 0.00546635 0.00810603 0.925008 0.502177 0.128517 0.0509479 0.635399 0.128111 0.421801 0.0915877 0.128517 0.0509479 -0.00516443 -0.00616725 0.0350367 0.0245363 0.0220562 0.014371 0.600563 0.0814898 0.0831558 0.00437233 0.421801 0.0915877 0.0981979 0.0382673 0.0831558 0.00437233 -0.00616725 -0.00717008 0.0220562 0.014371 0.0382673 -0.0216634 0.644985 0.139884 0.423173 0.102157 0.92931 0.511208 0.137344 0.0616087 0.423173 0.102157 0.0964473 0.0429475 0.599329 0.0872856 0.0882733 0.0116698 0.0465267 0.0387331 0.028302 0.0269404 0.137344 0.0616087 0.00810603 0.00546635 0.028302 0.0269404 0.0429475 -0.0105523 0.0882733 0.0116698 0.00510931 0.00142198 2.81004 2.28859 3.65132 3.16634 2.57932 3.66014 2.29926 3.27319 3.65132 3.16634 4.02242 3.52779 3.52441 4.02246 3.16526 3.65615 2.28859 1.76713 3.27219 2.30375 2.29926 3.27319 1.76526 2.29221 3.27219 2.30375 3.66387 2.58741 3.16526 3.65615 2.29221 2.81916 4.02242 3.52779 3.65946 3.17023 4.02204 3.53092 3.65582 3.17083 3.65946 3.17023 2.82476 2.30026 3.66582 2.5933 3.27807 2.31153 3.66387 2.58741 3.27743 2.30895 3.65582 3.17083 2.81869 2.29729 3.27743 2.30895 2.30026 1.77576 3.27807 2.31153 2.29729 1.77588 1.79745 2.32336 2.33241 3.3026 1.79492 2.31992 2.33522 3.30331 2.33241 3.3026 2.61558 3.69401 2.31992 2.84492 3.197 3.68723 2.32336 2.84927 3.19818 3.68865 2.33522 3.30331 2.62087 3.69651 3.19818 3.68865 3.55913 4.05645 3.197 3.68723 3.56193 4.0564 2.61558 3.69401 2.33457 3.30698 2.84709 2.32331 3.6877 3.19916 2.33457 3.30698 1.79951 2.32684 2.32331 1.79953 3.30635 2.33849 3.55913 4.05645 3.19976 3.69087 3.6877 3.19916 4.05692 3.56287 3.19976 3.69087 2.32684 2.85416 3.30635 2.33849 3.69896 2.62307 1.76637 2.28691 2.30376 3.27113 1.76681 2.2922 2.29912 3.2702 2.30376 3.27113 2.58827 3.66284 2.2922 2.81759 3.16537 3.65552 2.28691 2.80744 3.16594 3.65075 2.29912 3.2702 2.57932 3.66014 3.16594 3.65075 3.52823 4.02194 3.16537 3.65552 3.52441 4.02246 2.58827 3.66284 2.30881 3.27593 2.81677 2.2969 3.65508 3.17081 2.30881 3.27593 1.7744 2.29849 2.2969 1.77702 3.27525 2.311 3.52823 4.02194 3.16962 3.659 3.65508 3.17081 4.02204 3.53092 3.16962 3.659 2.29849 2.82258 3.27525 2.311 3.66582 2.5933 1.80022 2.32671 2.33763 3.31102 1.80222 2.32693 2.33827 3.31002 2.33763 3.31102 2.62082 3.70107 2.32693 2.85164 3.20419 3.6923 2.32671 2.85321 3.2031 3.69359 2.33827 3.31002 2.62165 3.70132 3.2031 3.69359 3.56534 4.06298 3.20419 3.6923 3.56525 4.063 2.62082 3.70107 2.34347 3.31397 2.84904 2.33124 3.69172 3.20972 2.34347 3.31397 1.81378 2.33859 2.33124 1.81343 3.31492 2.35016 3.56534 4.06298 3.20915 3.69885 3.69172 3.20972 4.06248 3.57164 3.20915 3.69885 2.33859 2.86341 3.31492 2.35016 3.70622 2.63417 2.85297 2.33136 3.69324 3.20799 2.62165 3.70132 2.34301 3.31454 3.69324 3.20799 4.06255 3.57121 3.56525 4.063 3.20733 3.69976 2.33136 1.80974 3.31506 2.34806 2.34301 3.31454 1.80915 2.33672 3.31506 2.34806 3.70609 2.63346 3.20733 3.69976 2.33672 2.8643 4.06255 3.57121 3.69841 3.21404 4.06248 3.57164 3.69933 3.21293 3.69841 3.21404 2.86247 2.34266 3.70622 2.63417 3.31921 2.3546 3.70609 2.63346 3.31863 2.35466 3.69933 3.21293 2.86339 2.34218 3.31863 2.35466 2.34266 1.82286 3.31921 2.3546 2.34218 1.82096 2.8499 2.3317 3.68912 3.20585 2.62087 3.69651 2.34325 3.31167 3.68912 3.20585 4.05688 3.56549 3.56193 4.0564 3.20654 3.69188 2.3317 1.81351 3.31089 2.34738 2.34325 3.31167 1.81424 2.33528 3.31089 2.34738 3.70122 2.62743 3.20654 3.69188 2.33528 2.85632 4.05688 3.56549 3.69119 3.20676 4.05692 3.56287 3.69245 3.2078 3.69119 3.20676 2.85483 2.33427 3.69896 2.62307 3.31365 2.34576 3.70122 2.62743 3.31453 2.34705 3.69245 3.2078 2.85752 2.33633 3.31453 2.34705 2.33427 1.8137 3.31365 2.34576 2.33633 1.81514 
