# vtk DataFile Version 3.0
#This file was generated by the deal.II library on 2020/8/22 at 21:53:36
ASCII
DATASET UNSTRUCTURED_GRID

POINTS 11720 double
0.5 0.5 0
0.5 1 0
1 0.5 0
1 1 0
0.5 0.5 0
1 0.5 0
0.5 1 0
1 1 0
0 0 0
0 0.25 0
0.25 0 0
0.25 0.25 0
0 0 0
0.25 0 0
0 0.25 0
0.25 0.25 0
0.25 0.25 0
0.25 0.5 0
0.5 0.25 0
0.5 0.5 0
0.25 0.25 0
0.5 0.25 0
0.25 0.5 0
0.5 0.5 0
0.75 0 0
0.75 0.25 0
1 0 0
1 0.25 0
0.75 0 0
1 0 0
0.75 0.25 0
1 0.25 0
0.5 0.25 0
0.5 0.5 0
0.75 0.25 0
0.75 0.5 0
0.5 0.25 0
0.75 0.25 0
0.5 0.5 0
0.75 0.5 0
0.75 0.25 0
0.75 0.5 0
1 0.25 0
1 0.5 0
0.75 0.25 0
1 0.25 0
0.75 0.5 0
1 0.5 0
0.25 0.5 0
0.25 0.75 0
0.5 0.5 0
0.5 0.75 0
0.25 0.5 0
0.5 0.5 0
0.25 0.75 0
0.5 0.75 0
0 0.75 0
0 1 0
0.25 0.75 0
0.25 1 0
0 0.75 0
0.25 0.75 0
0 1 0
0.25 1 0
0.25 0.75 0
0.25 1 0
0.5 0.75 0
0.5 1 0
0.25 0.75 0
0.5 0.75 0
0.25 1 0
0.5 1 0
-1 -0.375 0
-1 -0.25 0
-0.875 -0.375 0
-0.875 -0.25 0
-1 -0.375 0
-0.875 -0.375 0
-1 -0.25 0
-0.875 -0.25 0
-0.125 -0.375 0
-0.125 -0.25 0
0 -0.375 0
0 -0.25 0
-0.125 -0.375 0
0 -0.375 0
-0.125 -0.25 0
0 -0.25 0
-0.375 0 0
-0.375 0.125 0
-0.25 0 0
-0.25 0.125 0
-0.375 0 0
-0.25 0 0
-0.375 0.125 0
-0.25 0.125 0
-0.75 -0.125 0
-0.75 0 0
-0.625 -0.125 0
-0.625 0 0
-0.75 -0.125 0
-0.625 -0.125 0
-0.75 0 0
-0.625 0 0
-0.375 -0.125 0
-0.375 0 0
-0.25 -0.125 0
-0.25 0 0
-0.375 -0.125 0
-0.25 -0.125 0
-0.375 0 0
-0.25 0 0
-1 0.25 0
-1 0.375 0
-0.875 0.25 0
-0.875 0.375 0
-1 0.25 0
-0.875 0.25 0
-1 0.375 0
-0.875 0.375 0
-0.125 0.25 0
-0.125 0.375 0
0 0.25 0
0 0.375 0
-0.125 0.25 0
0 0.25 0
-0.125 0.375 0
0 0.375 0
-0.75 -1 0
-0.75 -0.875 0
-0.625 -1 0
-0.625 -0.875 0
-0.75 -1 0
-0.625 -1 0
-0.75 -0.875 0
-0.625 -0.875 0
-0.375 -1 0
-0.375 -0.875 0
-0.25 -1 0
-0.25 -0.875 0
-0.375 -1 0
-0.25 -1 0
-0.375 -0.875 0
-0.25 -0.875 0
0.25 -1 0
0.25 -0.875 0
0.375 -1 0
0.375 -0.875 0
0.25 -1 0
0.375 -1 0
0.25 -0.875 0
0.375 -0.875 0
0 -0.75 0
0 -0.625 0
0.125 -0.75 0
0.125 -0.625 0
0 -0.75 0
0.125 -0.75 0
0 -0.625 0
0.125 -0.625 0
0.875 -0.75 0
0.875 -0.625 0
1 -0.75 0
1 -0.625 0
0.875 -0.75 0
1 -0.75 0
0.875 -0.625 0
1 -0.625 0
0 -0.375 0
0 -0.25 0
0.125 -0.375 0
0.125 -0.25 0
0 -0.375 0
0.125 -0.375 0
0 -0.25 0
0.125 -0.25 0
0.25 -0.125 0
0.25 0 0
0.375 -0.125 0
0.375 0 0
0.25 -0.125 0
0.375 -0.125 0
0.25 0 0
0.375 0 0
0.875 -0.375 0
0.875 -0.25 0
1 -0.375 0
1 -0.25 0
0.875 -0.375 0
1 -0.375 0
0.875 -0.25 0
1 -0.25 0
0.625 -0.125 0
0.625 0 0
0.75 -0.125 0
0.75 0 0
0.625 -0.125 0
0.75 -0.125 0
0.625 0 0
0.75 0 0
-1 0.625 0
-1 0.75 0
-0.875 0.625 0
-0.875 0.75 0
-1 0.625 0
-0.875 0.625 0
-1 0.75 0
-0.875 0.75 0
-0.75 0.875 0
-0.75 1 0
-0.625 0.875 0
-0.625 1 0
-0.75 0.875 0
-0.625 0.875 0
-0.75 1 0
-0.625 1 0
-0.125 0.625 0
-0.125 0.75 0
0 0.625 0
0 0.75 0
-0.125 0.625 0
0 0.625 0
-0.125 0.75 0
0 0.75 0
-0.375 0.875 0
-0.375 1 0
-0.25 0.875 0
-0.25 1 0
-0.375 0.875 0
-0.25 0.875 0
-0.375 1 0
-0.25 1 0
-0.75 0 0
-0.75 0.125 0
-0.625 0 0
-0.625 0.125 0
-0.75 0 0
-0.625 0 0
-0.75 0.125 0
-0.625 0.125 0
-1 -0.75 0
-1 -0.625 0
-0.875 -0.75 0
-0.875 -0.625 0
-1 -0.75 0
-0.875 -0.75 0
-1 -0.625 0
-0.875 -0.625 0
-0.125 -0.75 0
-0.125 -0.625 0
0 -0.75 0
0 -0.625 0
-0.125 -0.75 0
0 -0.75 0
-0.125 -0.625 0
0 -0.625 0
0.625 -1 0
0.625 -0.875 0
0.75 -1 0
0.75 -0.875 0
0.625 -1 0
0.75 -1 0
0.625 -0.875 0
0.75 -0.875 0
-1 -0.25 0
-1 -0.125 0
-0.875 -0.25 0
-0.875 -0.125 0
-1 -0.25 0
-0.875 -0.25 0
-1 -0.125 0
-0.875 -0.125 0
-0.875 -0.25 0
-0.875 -0.125 0
-0.75 -0.25 0
-0.75 -0.125 0
-0.875 -0.25 0
-0.75 -0.25 0
-0.875 -0.125 0
-0.75 -0.125 0
-1 -0.125 0
-1 0 0
-0.875 -0.125 0
-0.875 0 0
-1 -0.125 0
-0.875 -0.125 0
-1 0 0
-0.875 0 0
-0.875 -0.125 0
-0.875 0 0
-0.75 -0.125 0
-0.75 0 0
-0.875 -0.125 0
-0.75 -0.125 0
-0.875 0 0
-0.75 0 0
-0.25 -0.25 0
-0.25 -0.125 0
-0.125 -0.25 0
-0.125 -0.125 0
-0.25 -0.25 0
-0.125 -0.25 0
-0.25 -0.125 0
-0.125 -0.125 0
-0.125 -0.25 0
-0.125 -0.125 0
0 -0.25 0
0 -0.125 0
-0.125 -0.25 0
0 -0.25 0
-0.125 -0.125 0
0 -0.125 0
-0.25 -0.125 0
-0.25 0 0
-0.125 -0.125 0
-0.125 0 0
-0.25 -0.125 0
-0.125 -0.125 0
-0.25 0 0
-0.125 0 0
-0.125 -0.125 0
-0.125 0 0
0 -0.125 0
0 0 0
-0.125 -0.125 0
0 -0.125 0
-0.125 0 0
0 0 0
-1 0 0
-1 0.125 0
-0.875 0 0
-0.875 0.125 0
-1 0 0
-0.875 0 0
-1 0.125 0
-0.875 0.125 0
-0.875 0 0
-0.875 0.125 0
-0.75 0 0
-0.75 0.125 0
-0.875 0 0
-0.75 0 0
-0.875 0.125 0
-0.75 0.125 0
-1 0.125 0
-1 0.25 0
-0.875 0.125 0
-0.875 0.25 0
-1 0.125 0
-0.875 0.125 0
-1 0.25 0
-0.875 0.25 0
-0.875 0.125 0
-0.875 0.25 0
-0.75 0.125 0
-0.75 0.25 0
-0.875 0.125 0
-0.75 0.125 0
-0.875 0.25 0
-0.75 0.25 0
-0.25 0 0
-0.25 0.125 0
-0.125 0 0
-0.125 0.125 0
-0.25 0 0
-0.125 0 0
-0.25 0.125 0
-0.125 0.125 0
-0.125 0 0
-0.125 0.125 0
0 0 0
0 0.125 0
-0.125 0 0
0 0 0
-0.125 0.125 0
0 0.125 0
-0.25 0.125 0
-0.25 0.25 0
-0.125 0.125 0
-0.125 0.25 0
-0.25 0.125 0
-0.125 0.125 0
-0.25 0.25 0
-0.125 0.25 0
-0.125 0.125 0
-0.125 0.25 0
0 0.125 0
0 0.25 0
-0.125 0.125 0
0 0.125 0
-0.125 0.25 0
0 0.25 0
-1 -1 0
-1 -0.875 0
-0.875 -1 0
-0.875 -0.875 0
-1 -1 0
-0.875 -1 0
-1 -0.875 0
-0.875 -0.875 0
-0.875 -1 0
-0.875 -0.875 0
-0.75 -1 0
-0.75 -0.875 0
-0.875 -1 0
-0.75 -1 0
-0.875 -0.875 0
-0.75 -0.875 0
-1 -0.875 0
-1 -0.75 0
-0.875 -0.875 0
-0.875 -0.75 0
-1 -0.875 0
-0.875 -0.875 0
-1 -0.75 0
-0.875 -0.75 0
-0.875 -0.875 0
-0.875 -0.75 0
-0.75 -0.875 0
-0.75 -0.75 0
-0.875 -0.875 0
-0.75 -0.875 0
-0.875 -0.75 0
-0.75 -0.75 0
-0.25 -1 0
-0.25 -0.875 0
-0.125 -1 0
-0.125 -0.875 0
-0.25 -1 0
-0.125 -1 0
-0.25 -0.875 0
-0.125 -0.875 0
-0.125 -1 0
-0.125 -0.875 0
0 -1 0
0 -0.875 0
-0.125 -1 0
0 -1 0
-0.125 -0.875 0
0 -0.875 0
-0.25 -0.875 0
-0.25 -0.75 0
-0.125 -0.875 0
-0.125 -0.75 0
-0.25 -0.875 0
-0.125 -0.875 0
-0.25 -0.75 0
-0.125 -0.75 0
-0.125 -0.875 0
-0.125 -0.75 0
0 -0.875 0
0 -0.75 0
-0.125 -0.875 0
0 -0.875 0
-0.125 -0.75 0
0 -0.75 0
0 -1 0
0 -0.875 0
0.125 -1 0
0.125 -0.875 0
0 -1 0
0.125 -1 0
0 -0.875 0
0.125 -0.875 0
0.125 -1 0
0.125 -0.875 0
0.25 -1 0
0.25 -0.875 0
0.125 -1 0
0.25 -1 0
0.125 -0.875 0
0.25 -0.875 0
0 -0.875 0
0 -0.75 0
0.125 -0.875 0
0.125 -0.75 0
0 -0.875 0
0.125 -0.875 0
0 -0.75 0
0.125 -0.75 0
0.125 -0.875 0
0.125 -0.75 0
0.25 -0.875 0
0.25 -0.75 0
0.125 -0.875 0
0.25 -0.875 0
0.125 -0.75 0
0.25 -0.75 0
0.75 -1 0
0.75 -0.875 0
0.875 -1 0
0.875 -0.875 0
0.75 -1 0
0.875 -1 0
0.75 -0.875 0
0.875 -0.875 0
0.875 -1 0
0.875 -0.875 0
1 -1 0
1 -0.875 0
0.875 -1 0
1 -1 0
0.875 -0.875 0
1 -0.875 0
0.75 -0.875 0
0.75 -0.75 0
0.875 -0.875 0
0.875 -0.75 0
0.75 -0.875 0
0.875 -0.875 0
0.75 -0.75 0
0.875 -0.75 0
0.875 -0.875 0
0.875 -0.75 0
1 -0.875 0
1 -0.75 0
0.875 -0.875 0
1 -0.875 0
0.875 -0.75 0
1 -0.75 0
0 -0.25 0
0 -0.125 0
0.125 -0.25 0
0.125 -0.125 0
0 -0.25 0
0.125 -0.25 0
0 -0.125 0
0.125 -0.125 0
0.125 -0.25 0
0.125 -0.125 0
0.25 -0.25 0
0.25 -0.125 0
0.125 -0.25 0
0.25 -0.25 0
0.125 -0.125 0
0.25 -0.125 0
0 -0.125 0
0 0 0
0.125 -0.125 0
0.125 0 0
0 -0.125 0
0.125 -0.125 0
0 0 0
0.125 0 0
0.125 -0.125 0
0.125 0 0
0.25 -0.125 0
0.25 0 0
0.125 -0.125 0
0.25 -0.125 0
0.125 0 0
0.25 0 0
0.75 -0.25 0
0.75 -0.125 0
0.875 -0.25 0
0.875 -0.125 0
0.75 -0.25 0
0.875 -0.25 0
0.75 -0.125 0
0.875 -0.125 0
0.875 -0.25 0
0.875 -0.125 0
1 -0.25 0
1 -0.125 0
0.875 -0.25 0
1 -0.25 0
0.875 -0.125 0
1 -0.125 0
0.75 -0.125 0
0.75 0 0
0.875 -0.125 0
0.875 0 0
0.75 -0.125 0
0.875 -0.125 0
0.75 0 0
0.875 0 0
0.875 -0.125 0
0.875 0 0
1 -0.125 0
1 0 0
0.875 -0.125 0
1 -0.125 0
0.875 0 0
1 0 0
-1 0.75 0
-1 0.875 0
-0.875 0.75 0
-0.875 0.875 0
-1 0.75 0
-0.875 0.75 0
-1 0.875 0
-0.875 0.875 0
-0.875 0.75 0
-0.875 0.875 0
-0.75 0.75 0
-0.75 0.875 0
-0.875 0.75 0
-0.75 0.75 0
-0.875 0.875 0
-0.75 0.875 0
-1 0.875 0
-1 1 0
-0.875 0.875 0
-0.875 1 0
-1 0.875 0
-0.875 0.875 0
-1 1 0
-0.875 1 0
-0.875 0.875 0
-0.875 1 0
-0.75 0.875 0
-0.75 1 0
-0.875 0.875 0
-0.75 0.875 0
-0.875 1 0
-0.75 1 0
-0.25 0.75 0
-0.25 0.875 0
-0.125 0.75 0
-0.125 0.875 0
-0.25 0.75 0
-0.125 0.75 0
-0.25 0.875 0
-0.125 0.875 0
-0.125 0.75 0
-0.125 0.875 0
0 0.75 0
0 0.875 0
-0.125 0.75 0
0 0.75 0
-0.125 0.875 0
0 0.875 0
-0.25 0.875 0
-0.25 1 0
-0.125 0.875 0
-0.125 1 0
-0.25 0.875 0
-0.125 0.875 0
-0.25 1 0
-0.125 1 0
-0.125 0.875 0
-0.125 1 0
0 0.875 0
0 1 0
-0.125 0.875 0
0 0.875 0
-0.125 1 0
0 1 0
0.25 0 0
0.25 0.125 0
0.375 0 0
0.375 0.125 0
0.25 0 0
0.375 0 0
0.25 0.125 0
0.375 0.125 0
0.375 0 0
0.375 0.125 0
0.5 0 0
0.5 0.125 0
0.375 0 0
0.5 0 0
0.375 0.125 0
0.5 0.125 0
0.25 0.125 0
0.25 0.25 0
0.375 0.125 0
0.375 0.25 0
0.25 0.125 0
0.375 0.125 0
0.25 0.25 0
0.375 0.25 0
0.375 0.125 0
0.375 0.25 0
0.5 0.125 0
0.5 0.25 0
0.375 0.125 0
0.5 0.125 0
0.375 0.25 0
0.5 0.25 0
0 0.25 0
0 0.375 0
0.125 0.25 0
0.125 0.375 0
0 0.25 0
0.125 0.25 0
0 0.375 0
0.125 0.375 0
0.125 0.25 0
0.125 0.375 0
0.25 0.25 0
0.25 0.375 0
0.125 0.25 0
0.25 0.25 0
0.125 0.375 0
0.25 0.375 0
0 0.375 0
0 0.5 0
0.125 0.375 0
0.125 0.5 0
0 0.375 0
0.125 0.375 0
0 0.5 0
0.125 0.5 0
0.125 0.375 0
0.125 0.5 0
0.25 0.375 0
0.25 0.5 0
0.125 0.375 0
0.25 0.375 0
0.125 0.5 0
0.25 0.5 0
0.5 0 0
0.5 0.125 0
0.625 0 0
0.625 0.125 0
0.5 0 0
0.625 0 0
0.5 0.125 0
0.625 0.125 0
0.625 0 0
0.625 0.125 0
0.75 0 0
0.75 0.125 0
0.625 0 0
0.75 0 0
0.625 0.125 0
0.75 0.125 0
0.5 0.125 0
0.5 0.25 0
0.625 0.125 0
0.625 0.25 0
0.5 0.125 0
0.625 0.125 0
0.5 0.25 0
0.625 0.25 0
0.625 0.125 0
0.625 0.25 0
0.75 0.125 0
0.75 0.25 0
0.625 0.125 0
0.75 0.125 0
0.625 0.25 0
0.75 0.25 0
0 0.5 0
0 0.625 0
0.125 0.5 0
0.125 0.625 0
0 0.5 0
0.125 0.5 0
0 0.625 0
0.125 0.625 0
0.125 0.5 0
0.125 0.625 0
0.25 0.5 0
0.25 0.625 0
0.125 0.5 0
0.25 0.5 0
0.125 0.625 0
0.25 0.625 0
0 0.625 0
0 0.75 0
0.125 0.625 0
0.125 0.75 0
0 0.625 0
0.125 0.625 0
0 0.75 0
0.125 0.75 0
0.125 0.625 0
0.125 0.75 0
0.25 0.625 0
0.25 0.75 0
0.125 0.625 0
0.25 0.625 0
0.125 0.75 0
0.25 0.75 0
-0.875 -0.4375 0
-0.875 -0.375 0
-0.8125 -0.4375 0
-0.8125 -0.375 0
-0.875 -0.4375 0
-0.8125 -0.4375 0
-0.875 -0.375 0
-0.8125 -0.375 0
-0.1875 -0.4375 0
-0.1875 -0.375 0
-0.125 -0.4375 0
-0.125 -0.375 0
-0.1875 -0.4375 0
-0.125 -0.4375 0
-0.1875 -0.375 0
-0.125 -0.375 0
-0.4375 0.125 0
-0.4375 0.1875 0
[...]
POINT_DATA 11720
SCALARS u_hat double 1
LOOKUP_TABLE default
-0.000337119 8.2647e-07 5.59588e-16 -1.49941e-16 -0.000332551 -2.33969e-06 5.59588e-16 -1.49941e-16 0.000300168 0.000751045 -0.000864894 -0.000210802 0.000307032 0.000790151 -0.000894237 -0.000210589 -0.000418561 -0.000550492 -0.00045165 -0.000326053 -0.000416426 -0.000542733 -0.000463088 -0.000324476 -0.000722618 0.000148099 5.02742e-06 -1.29564e-06 0.000917753 8.82655e-05 -0.000454728 3.38752e-05 -0.00045165 -0.000326053 -0.000287441 -0.00017093 -0.00055421 -0.000139461 -0.000332551 -0.000167445 -0.000287441 -0.00017093 1.05362e-09 -2.80547e-10 -0.000454728 3.38752e-05 -0.000167445 -2.33969e-06 -0.000562101 -0.000154988 -0.000337119 -0.000168146 -0.000463088 -0.000324476 -0.000301875 -0.000170427 0.000872784 0.000131191 -0.000474294 4.26878e-05 -0.000722838 0.000119797 5.02742e-06 -1.29564e-06 -0.000474294 4.26878e-05 -0.000168146 8.2647e-07 -0.000301875 -0.000170427 1.05362e-09 -2.80547e-10 -0.00121623 -0.00234882 0.0790138 0.0206706 0.00301842 0.0510964 0.00760502 0.005945 0.0797773 0.021127 0.00608013 -0.000412562 0.0524103 0.00649283 0.0078819 0.00822913 0.00632453 0.0525423 0.00811293 0.00812913 0.00591323 -0.000517986 0.0799097 0.0213603 0.00818821 0.0071088 0.0524657 0.00579639 0.0205498 0.0794823 -0.000901893 0.00580734 0.0522691 0.006344 0.00786341 0.00813913 0.0796908 0.0211148 0.00591323 -0.000517986 -0.00185422 -8.94459e-05 0.021263 0.0797663 0.00796466 0.00676707 0.00400943 0.051811 0.0219969 0.0807358 -0.000255041 0.00290677 0.00761622 0.00973139 0.0529788 0.00476211 0.00705537 0.00686271 0.00300022 0.0518062 -0.001994 -0.000586147 0.0205163 0.0792051 0.00369432 0.0514621 0.00787681 0.00665813 -0.000408677 -0.00194577 0.0794154 0.0211533 0.00845563 0.006763 0.00408297 0.0521149 -0.00149948 -0.000148297 0.0214903 0.0800359 -0.0005687 0.00609093 0.0211145 0.080004 0.00744081 0.00875336 0.00608061 0.0529887 0.0223009 0.0809549 0.00142198 0.00510931 0.00893207 0.00994367 0.0542154 0.00431294 0.00608013 -0.000412562 0.0801439 0.0215468 0.00651084 0.0527233 0.00823617 0.00831188 0.00767229 0.00974868 0.0530852 0.00474152 0.0220539 0.0807889 -0.000219055 0.00289653 0.081084 0.022666 0.00510931 0.00142198 0.053837 0.00474032 0.00853358 0.0105002 0.0536579 0.00445356 0.00882584 0.00902147 0.0809373 0.0221551 0.00303805 -5.02892e-05 0.000145776 -0.00109942 0.0800307 0.0215612 0.00372556 0.0526289 0.00790161 0.00792361 0.00907084 0.00973402 0.0540459 0.00442936 0.0222632 0.0809153 0.00142198 0.00510931 0.0809044 0.0221599 0.003082 -5.70253e-05 0.0535864 0.00450343 0.00876883 0.00907662 0.0537991 0.00464279 0.00822258 0.0107558 0.0809646 0.0225955 0.00510931 0.00142198 0.00703573 0.00844567 0.00576209 0.0527017 -0.000901893 0.00580734 0.0207296 0.0796705 -0.00278319 -0.00105944 0.0204414 0.0789544 0.00634403 0.00691881 0.0026533 0.0513884 0.0208224 0.079706 -0.0005687 0.00609093 0.008537 0.00736837 0.0527362 0.00604632 0.00401747 0.0527088 0.00767464 0.00831683 0.000319207 -0.00137753 0.0802816 0.0218262 -0.00212439 0.00110136 0.0145014 0.00431192 0.00760502 0.005945 0.00254583 -0.00220693 0.0145014 0.00431192 0.150041 0.0129831 0.0131514 0.149494 0.00472411 0.0143247 -0.00117208 0.000700195 -0.00132501 0.00186602 0.00254583 -0.00220693 0.00110039 -0.00138513 -0.00132501 0.00186602 0.00818821 0.0071088 0.00472411 0.0143247 0.00163323 -0.000658623 0.150109 0.0136974 0.0147685 0.00528142 0.150172 0.013675 0.0147643 0.00525951 0.0147685 0.00528142 -0.000219933 0.0021985 0.0078819 0.00822913 -0.00119694 0.00282378 0.00786341 0.00813913 -0.00118189 0.0027594 0.0147643 0.00525951 -0.000326078 0.00215206 -0.00118189 0.0027594 -0.00077311 0.00146471 -0.00119694 0.00282378 -0.000820328 0.00146626 0.000707731 -0.00091938 0.00186294 -0.00100478 0.00110039 -0.00138513 0.00257709 -0.00166296 0.00186294 -0.00100478 0.00703573 0.00844567 0.00163323 -0.000658623 0.00488803 0.0146425 0.00125851 -0.00145116 0.00441775 0.0152898 0.00257709 -0.00166296 0.00796466 0.00676707 0.00441775 0.0152898 0.0130702 0.150757 0.00488803 0.0146425 0.0137 0.150118 0.00811293 0.00812913 0.00263037 -0.00079138 -0.000326078 0.00215206 0.0149872 0.0056328 0.00263037 -0.00079138 0.000300168 0.000525607 -0.000820328 0.00146626 -0.00125782 0.00325881 0.0138922 0.150795 0.00535033 0.0158486 0.0149872 0.0056328 0.150683 0.0145596 0.00535033 0.0158486 0.000525607 0.000751045 -0.00125782 0.00325881 0.00761622 0.00973139 0.000638375 -0.00176193 0.00201203 -0.00187912 0.000386883 -0.00122084 0.00148425 -0.00164605 0.00201203 -0.00187912 0.00705537 0.00686271 0.00087389 -0.00164251 0.00402401 0.0146241 0.000787941 -0.00244653 0.00395961 0.0145923 0.00148425 -0.00164605 0.00634403 0.00691881 0.00395961 0.0145923 0.0127378 0.149986 0.00402401 0.0146241 0.012774 0.149847 0.00787681 0.00665813 0.0027225 -0.00153293 -0.00154298 0.00140028 0.0151798 0.00454697 0.0027225 -0.00153293 0.00148299 -0.00101846 -0.000777942 0.00108733 -0.000875831 0.0022296 0.013592 0.149965 0.00501948 0.0147346 0.0151798 0.00454697 0.150603 0.0131619 0.00501948 0.0147346 0.00200136 -0.000326396 -0.000875831 0.0022296 0.008537 0.00736837 0.00148299 -0.00101846 0.00316569 -0.00160908 0.00107909 -0.000553987 0.00223202 -0.000726095 0.00316569 -0.00160908 0.00845563 0.006763 0.00171832 -0.00127349 0.00490981 0.0153218 0.00200136 -0.000326396 0.00532323 0.014889 0.00223202 -0.000726095 0.00744081 0.00875336 0.00532323 0.014889 0.0139699 0.150278 0.00490981 0.0153218 0.0135479 0.150827 0.00767464 0.00831683 0.00242526 -0.000355464 -0.00108069 0.00190791 0.0159819 0.00531693 0.00242526 -0.000355464 -1.15266e-05 0.000176479 -0.000665765 0.000954398 -0.000636664 0.00272072 0.0141246 0.151381 0.00515188 0.016836 0.0159819 0.00531693 0.151498 0.0145157 0.00515188 0.016836 8.6761e-05 0.00141873 -0.000636664 0.00272072 0.00893207 0.00994367 -0.000219933 0.0021985 0.0151828 0.00569015 0.00823617 0.00831188 0.00266314 -0.000692851 0.0151828 0.00569015 0.150907 0.0145784 0.0141146 0.150898 0.00544709 0.0159035 -0.00077311 0.00146471 -0.0011925 0.00329727 0.00266314 -0.000692851 0.000307032 0.000548591 -0.0011925 0.00329727 0.00767229 0.00974868 0.00544709 0.0159035 0.000548591 0.000790151 0.15199 0.0144399 0.0171198 0.00531823 0.151388 0.0150873 0.0162875 0.00572938 0.0171198 0.00531823 0.00141873 8.6761e-05 0.00853358 0.0105002 -0.000600117 0.00281499 0.00882584 0.00902147 -0.000319183 0.00269491 0.0162875 0.00572938 0.000917753 0.000503009 -0.000319183 0.00269491 0.000176479 -1.15266e-05 -0.000600117 0.00281499 0.000503009 8.82655e-05 -0.000785331 0.00173692 0.0156763 0.0052896 0.00790161 0.00792361 0.00270124 -0.000656771 0.0156763 0.0052896 0.151154 0.0145871 0.0137582 0.151311 0.00502304 0.0168436 -0.000404527 0.000755182 -0.000495804 0.00248536 0.00270124 -0.000656771 -1.15266e-05 0.000176479 -0.000495804 0.00248536 0.00907084 0.00973402 0.00502304 0.0168436 8.6761e-05 0.00141873 0.151134 0.0150505 0.0161284 0.00588904 0.151657 0.0145482 0.0168712 0.00548494 0.0161284 0.00588904 0.000872784 0.000501987 0.00876883 0.00907662 -0.000370975 0.00271532 0.00822258 0.0107558 -0.0009089 0.00311651 0.0168712 0.00548494 0.00141873 8.6761e-05 -0.0009089 0.00311651 0.000501987 0.000131191 -0.000370975 0.00271532 0.000176479 -1.15266e-05 -0.000864894 -0.000537848 -0.000883352 0.00265667 -0.000219055 0.00289653 -0.000689375 -0.00046825 -0.000883352 0.00265667 0.000278958 0.0040423 0.00735829 0.00742192 -0.000493222 -0.000464783 -0.000537848 -0.000210802 -0.000763839 -0.000344911 -0.000689375 -0.00046825 -0.000416426 -0.000479579 -0.000763839 -0.000344911 -0.000757394 -0.00030056 -0.000493222 -0.000464783 -0.000479579 -0.000542733 -0.000255041 0.00290677 -0.000707537 -0.000472055 -0.000894237 -0.000552413 -0.000872208 0.00265322 -0.000707537 -0.000472055 -0.000418561 -0.000484527 -0.000552413 -0.000210589 -0.000767008 -0.000349637 0.00737066 0.00742402 -0.000475063 -0.000466441 -0.000872208 0.00265322 0.000340169 0.0040218 -0.000475063 -0.000466441 -0.000484527 -0.000550492 -0.000767008 -0.000349637 -0.000753831 -0.000307953 0.000278958 0.0040423 -0.000684651 0.00268711 0.00746274 0.00733495 -0.000451936 -0.000366836 -0.000684651 0.00268711 -0.000722618 -0.000287259 0.00303805 -5.02892e-05 -0.000330711 -0.00043276 -0.000757394 -0.00030056 -0.000631887 -0.000216487 -0.000451936 -0.000366836 -0.00055421 -0.000346836 -0.000631887 -0.000216487 -0.000287259 0.000148099 -0.000330711 -0.00043276 -0.000346836 -0.000139461 0.00746376 0.00736532 -0.000455252 -0.000354314 0.000340169 0.0040218 -0.00064326 0.00265412 -0.000455252 -0.000354314 -0.000562101 -0.000358544 -0.000753831 -0.000307953 -0.000643658 -0.000227424 0.003082 -5.70253e-05 -0.000348583 -0.000460812 -0.00064326 0.00265412 -0.000722838 -0.000301521 -0.000348583 -0.000460812 -0.000358544 -0.000154988 -0.000643658 -0.000227424 -0.000301521 0.000119797 0.106772 0.0734621 0.317488 0.233989 0.0986326 0.289005 0.0828874 0.206961 0.318306 0.23446 0.108073 0.0743203 0.289707 0.0995417 0.207749 0.0835878 0.099625 0.289931 0.0837185 0.208032 0.108156 0.074452 0.318529 0.234741 0.207811 0.0829361 0.289564 0.0991992 0.234079 0.318056 0.0740531 0.107851 0.2895 0.0994406 0.207619 0.0835531 0.31815 0.234407 0.10792 0.0741997 0.0741685 0.107667 0.23486 0.318323 0.0835297 0.207915 0.0995638 0.289826 0.235316 0.319073 0.0749624 0.10853 0.208447 0.0845112 0.290387 0.100254 0.0825583 0.207684 0.0987708 0.289475 0.0737755 0.107114 0.234062 0.317753 0.099093 0.28932 0.0831797 0.207536 0.107195 0.0738176 0.317817 0.234482 0.0839069 0.207962 0.099742 0.290094 0.0744821 0.107883 0.234991 0.318578 0.0745752 0.10835 0.234715 0.318669 0.0834581 0.208446 0.0996993 0.290177 0.235677 0.319253 0.0756896 0.108654 0.2093 0.0843024 0.291012 0.100324 0.108383 0.0746518 0.318735 0.234993 0.0999047 0.290087 0.0840046 0.208207 0.208604 0.08451 0.290575 0.100272 0.235396 0.319208 0.075051 0.108597 0.319278 0.236013 0.108689 0.0756538 0.290821 0.100604 0.209071 0.0848276 0.290843 0.100233 0.209334 0.0841845 0.319319 0.235551 0.108714 0.0752729 0.107823 0.0746004 0.318513 0.234948 0.0994783 0.290235 0.0833794 0.208574 0.209176 0.0843164 0.290728 0.100395 0.235674 0.319078 0.0755443 0.1086 0.319195 0.235416 0.108659 0.0752081 0.290669 0.100206 0.209073 0.0842693 0.290704 0.100447 0.208722 0.0848463 0.319148 0.235746 0.108578 0.0756124 0.0790138 0.0498422 0.23737 0.137031 0.0828874 0.206961 0.0510851 0.128144 0.23737 0.137031 0.566436 0.337465 0.219831 0.540609 0.142923 0.32498 0.0498422 0.0206706 0.144186 0.0689639 0.0510851 0.128144 0.0131514 0.0813225 0.144186 0.0689639 0.342543 0.162222 0.142923 0.32498 0.0813225 0.149494 1.1265 0.671829 1.82739 1.09537 1.095 1.82773 0.671465 1.12683 0.342543 0.162222 0.673581 0.330149 0.329943 0.673754 0.161987 0.342835 1.82796 1.09532 1.12711 0.672017 1.82797 1.09534 1.12712 0.671959 0.674117 0.330336 0.343307 0.162449 0.674166 0.330361 0.343286 0.162389 0.567185 0.33772 0.238373 0.137283 0.541157 0.22038 0.325538 0.143542 0.238373 0.137283 0.0797773 0.0504521 0.207749 0.0835878 0.128972 0.0514548 0.343307 0.162449 0.145053 0.0692975 0.325538 0.143542 0.150172 0.0819233 0.145053 0.0692975 0.0504521 0.021127 0.128972 0.0514548 0.0819233 0.013675 0.162684 0.343364 0.330626 0.674399 0.162552 0.343479 0.33056 0.674516 0.672581 1.12724 1.09598 1.8282 0.672281 1.12739 1.09575 1.82853 0.0837185 0.208032 0.0516352 0.129323 0.0799097 0.050635 0.238655 0.137628 0.0516352 0.129323 0.0138922 0.0823434 0.050635 0.0213603 0.1454 0.069717 0.220661 0.541588 0.143885 0.326047 0.238655 0.137628 0.567614 0.338222 0.143885 0.326047 0.0823434 0.150795 0.1454 0.069717 0.343813 0.163041 0.330866 0.674812 0.162982 0.344016 0.343813 0.163041 0.67476 0.33106 1.09592 1.82871 0.672604 1.12789 1.12769 0.672659 1.8287 1.09608 0.162072 0.342581 0.33009 0.67373 0.162238 0.342595 0.330039 0.673629 0.671727 1.12649 1.09535 1.82752 0.671844 1.12646 1.09532 1.82749 0.33028 0.674207 0.162398 0.343296 0.343085 0.162529 0.674089 0.330442 1.09531 1.82807 0.671971 1.12705 1.1268 0.672272 1.82774 1.09564 0.162771 0.343602 0.33083 0.674628 0.163007 0.343432 0.330915 0.674456 0.672339 1.12769 1.09598 1.82871 0.672703 1.12748 1.09623 1.82837 0.331447 0.675038 0.163755 0.344109 0.34399 0.163576 0.675138 0.3316 1.09663 1.82879 0.673254 1.12785 1.12781 0.673133 1.82882 1.09674 1.12796 0.672797 1.82897 1.09626 1.09615 1.82896 0.672859 1.12805 0.344015 0.163143 0.675006 0.331216 0.331064 0.67496 0.163204 0.344169 1.82901 1.09687 1.12814 0.673594 1.82934 1.09664 1.12828 0.673292 0.67541 0.331743 0.344497 0.163921 0.67553 0.331686 0.344604 0.163775 1.12745 0.673011 1.82848 1.09653 1.09635 1.82851 0.672899 1.1277 0.343706 0.163536 0.674797 0.331413 0.331201 0.674901 0.163386 0.34396 1.82897 1.0964 1.1281 0.672893 1.82863 1.09664 1.1279 0.673258 0.675184 0.331532 0.344297 0.163589 0.675009 0.331606 0.344137 0.16384 0.150041 0.0815123 0.325519 0.142775 0.161987 0.342835 0.068913 0.144674 0.325519 0.142775 0.540925 0.219965 0.337338 0.56681 0.136797 0.238066 0.0815123 0.0129831 0.128882 0.0507725 0.068913 0.144674 0.0205498 0.0500161 0.128882 0.0507725 0.207811 0.0829361 0.136797 0.238066 0.0500161 0.0794823 0.540997 0.220362 0.325382 0.14358 0.567095 0.337667 0.238332 0.137192 0.325382 0.14358 0.150109 0.0819032 0.343286 0.162389 0.145022 0.0692571 0.207619 0.0835531 0.128946 0.0513844 0.238332 0.137192 0.0796908 0.0504028 0.128946 0.0513844 0.0819032 0.0136974 0.145022 0.0692571 0.0504028 0.0211148 0.021263 0.0505146 0.069567 0.144956 0.0137 0.081909 0.0513671 0.129323 0.069567 0.144956 0.162684 0.343364 0.081909 0.150118 0.143799 0.325554 0.0505146 0.0797663 0.137819 0.238219 0.0513671 0.129323 0.0835297 0.207915 0.137819 0.238219 0.338108 0.567254 0.143799 0.325554 0.220723 0.541381 0.162982 0.344016 0.0699793 0.145875 0.150683 0.0826214 0.326101 0.144422 0.0699793 0.145875 0.0219969 0.0513663 0.0826214 0.0145596 0.129759 0.0524119 0.338397 0.567927 0.138025 0.239236 0.326101 0.144422 0.541822 0.221267 0.138025 0.239236 0.0513663 0.0807358 0.129759 0.0524119 0.208447 0.0845112 0.0127378 0.0813621 0.0507162 0.12872 0.0205163 0.0498607 0.0690889 0.144278 0.0507162 0.12872 0.0825583 0.207684 0.0498607 0.0792051 0.137166 0.237474 0.0813621 0.149986 0.142539 0.325607 0.0690889 0.144278 0.162238 0.342595 0.142539 0.325607 0.219809 0.540981 0.137166 0.237474 0.33753 0.566554 0.0831797 0.207536 0.051138 0.129069 0.0794154 0.0502843 0.237841 0.137566 0.051138 0.129069 0.013592 0.0817783 0.0502843 0.0211533 0.144703 0.069437 0.220345 0.54097 0.143546 0.325274 0.237841 0.137566 0.566844 0.337828 0.143546 0.325274 0.0817783 0.149965 0.144703 0.069437 0.343085 0.162529 0.0139699 0.0821238 0.0520068 0.129048 0.0214903 0.0507631 0.0697656 0.14509 0.0520068 0.129048 0.0839069 0.207962 0.0507631 0.0800359 0.137935 0.238372 0.0821238 0.150278 0.143827 0.325867 0.0697656 0.14509 0.163007 0.343432 0.143827 0.325867 0.220832 0.541594 0.137935 0.238372 0.338354 0.567422 0.0211145 0.0505593 0.0695888 0.145331 0.0135479 0.0821874 0.0513164 0.129538 0.0695888 0.145331 0.162771 0.343602 0.0821874 0.150827 0.143431 0.326285 0.0505593 0.080004 0.137453 0.238701 0.0513164 0.129538 0.0834581 0.208446 0.137453 0.238701 0.338105 0.567556 0.143431 0.326285 0.2206 0.541671 0.163755 0.344109 0.070734 0.145913 0.151498 0.0830069 0.327118 0.144172 0.070734 0.145913 0.0223009 0.0516279 0.0830069 0.0145157 0.130354 0.0524834 0.339043 0.568044 0.138801 0.239085 0.327118 0.144172 0.542467 0.221408 0.138801 0.239085 0.0516279 0.0809549 0.130354 0.0524834 0.2093 0.0843024 0.0801439 0.0508454 0.238918 0.137782 0.0840046 0.208207 0.0518253 0.129541 0.238918 0.137782 0.567807 0.338392 0.220948 0.54171 0.144166 0.326114 0.0508454 0.0215468 0.145614 0.0698601 0.0518253 0.129541 0.0141146 0.0825062 0.145614 0.0698601 0.344015 0.163143 0.144166 0.326114 0.0825062 0.150898 0.150907 0.0827427 0.326388 0.144453 0.163204 0.344169 0.070122 0.145974 0.326388 0.144453 0.542073 0.221312 0.338582 0.568109 0.138184 0.239304 0.0827427 0.0145784 0.129853 0.0524902 0.070122 0.145974 0.0220539 0.0514214 0.129853 0.0524902 0.208604 0.08451 0.138184 0.239304 0.0514214 0.0807889 0.568265 0.339234 0.239371 0.139059 0.542387 0.221858 0.326686 0.145036 0.239371 0.139059 0.081084 0.051875 0.209071 0.0848276 0.130571 0.052725 0.344497 0.163921 0.146203 0.0708947 0.326686 0.145036 0.151388 0.0832378 0.146203 0.0708947 0.051875 0.022666 0.130571 0.052725 0.0832378 0.0150873 0.542513 0.221404 0.327274 0.144382 0.568356 0.338991 0.239499 0.138516 0.327274 0.144382 0.15199 0.0832148 0.344604 0.163775 0.146319 0.0706604 0.209334 0.0841845 0.130684 0.0522106 0.239499 0.138516 0.0809373 0.0515462 0.130684 0.0522106 0.0832148 0.0144399 0.146319 0.0706604 0.0515462 0.0221551 0.0800307 0.050796 0.238362 0.138188 0.0833794 0.208574 0.0516476 0.129749 0.238362 0.138188 0.567503 0.338636 0.220695 0.541934 0.143557 0.326722 0.050796 0.0215612 0.145301 0.07026 0.0516476 0.129749 0.0137582 0.0825347 0.145301 0.07026 0.343706 0.163536 0.143557 0.326722 0.0825347 0.151311 0.151154 0.0828703 0.326607 0.144307 0.163386 0.34396 0.0705604 0.145856 0.326607 0.144307 0.542106 0.221482 0.338792 0.567839 0.13862 0.239099 0.0828703 0.0145871 0.130509 0.0521978 0.0705604 0.145856 0.0222632 0.0515892 0.130509 0.0521978 0.209176 0.0843164 0.13862 0.239099 0.0515892 0.0809153 0.568114 0.338795 0.239399 0.138276 0.542226 0.221298 0.326975 0.144258 0.239399 0.138276 0.0809044 0.0515321 0.209073 0.0842693 0.130349 0.0523479 0.344297 0.163589 0.146173 0.0705081 0.326975 0.144258 0.151657 0.0831025 0.146173 0.0705081 0.0515321 0.0221599 0.130349 0.0523479 0.0831025 0.0145482 0.542169 0.221572 0.326574 0.144681 0.567999 0.339056 0.239124 0.138794 0.326574 0.144681 0.151134 0.0830923 0.344137 0.16384 0.145948 0.0707332 0.208722 0.0848463 0.129909 0.0530207 0.239124 0.138794 0.0809646 0.05178 0.129909 0.0530207 0.0830923 0.0150505 0.145948 0.0707332 0.05178 0.0225955 0.0130702 0.0819138 0.0508013 0.129474 0.0207296 0.0502 0.0693535 0.145076 0.0508013 0.129474 0.083011 0.208312 0.0502 0.0796705 0.137292 0.238402 0.0819138 0.150757 0.143154 0.326157 0.0693535 0.145076 0.162552 0.343479 0.143154 0.326157 0.220309 0.541527 0.137292 0.238402 0.337872 0.567364 0.083011 0.208312 0.0993897 0.289975 0.0742753 0.108075 0.234451 0.318419 0.0204414 0.0496979 0.069004 0.144234 0.012774 0.0813107 0.0503096 0.128888 0.069004 0.144234 0.162072 0.342581 0.0813107 0.149847 0.142688 0.325232 0.0496979 0.0789544 0.137 0.237425 0.0503096 0.128888 0.0823679 0.207498 0.137 0.237425 0.337414 0.566414 0.142688 0.325232 0.219824 0.540686 0.0734017 0.106803 0.233998 0.317451 0.0823679 0.207498 0.0985806 0.289066 0.162398 0.343296 0.069323 0.145017 0.150603 0.0818826 0.325973 0.143095 0.069323 0.145017 0.0208224 0.0502642 0.0818826 0.0131619 0.129415 0.0508663 0.337688 0.567146 0.137233 0.238311 0.325973 0.143095 0.541308 0.220217 0.137233 0.238311 0.0502642 0.079706 0.129415 0.0508663 0.20822 0.0830455 0.23436 0.318289 0.0743099 0.108075 0.20822 0.0830455 0.289844 0.0993891 0.0998427 0.290316 0.0836852 0.20882 0.108066 0.0747264 0.318701 0.235318 0.0836852 0.20882 0.0516628 0.130278 0.0802816 0.0510539 0.238746 0.138382 0.0516628 0.130278 0.0141246 0.0827528 0.0510539 0.0218262 0.145616 0.0704472 0.221142 0.542008 0.144065 0.326645 0.238746 0.138382 0.567735 0.338818 0.144065 0.326645 0.0827528 0.151381 0.145616 0.0704472 0.34399 0.163576 0.0061745 0.00528052 0.032424 0.029086 0.0110217 0.0213915 0.00927629 0.0205458 0.032424 0.029086 0.118248 0.108455 0.0438936 0.0903055 0.0404239 0.0804229 0.00738721 0.00597331 0.0301075 0.0202341 0.00927629 0.0205458 0.00301842 0.0270574 0.0301075 0.0202341 0.106772 0.0734621 0.0404239 0.0804229 0.0270574 0.0510964 0.119237 0.109399 0.0347774 0.0312211 0.091789 0.0453177 0.0817803 0.0418773 0.0347774 0.0312211 0.0150343 0.0132564 0.0257752 0.0160912 0.0246923 0.0138411 0.108073 0.0743203 0.0325736 0.0218644 0.0817803 0.0418773 0.0524103 0.0294516 0.0325736 0.0218644 0.0155302 0.0114275 0.0246923 0.0138411 0.0294516 0.00649283 0.015864 0.0256812 0.0136