# vtk DataFile Version 3.0
#This file was generated by the deal.II library on 2020/8/22 at 21:53:36
ASCII
DATASET UNSTRUCTURED_GRID

POINTS 5860 double
0.5 0.5 0
1 0.5 0
0.5 1 0
1 1 0
0 0 0
0.25 0 0
0 0.25 0
0.25 0.25 0
0.25 0.25 0
0.5 0.25 0
0.25 0.5 0
0.5 0.5 0
0.75 0 0
1 0 0
0.75 0.25 0
1 0.25 0
0.5 0.25 0
0.75 0.25 0
0.5 0.5 0
0.75 0.5 0
0.75 0.25 0
1 0.25 0
0.75 0.5 0
1 0.5 0
0.25 0.5 0
0.5 0.5 0
0.25 0.75 0
0.5 0.75 0
0 0.75 0
0.25 0.75 0
0 1 0
0.25 1 0
0.25 0.75 0
0.5 0.75 0
0.25 1 0
0.5 1 0
-1 -0.375 0
-0.875 -0.375 0
-1 -0.25 0
-0.875 -0.25 0
-0.125 -0.375 0
0 -0.375 0
-0.125 -0.25 0
0 -0.25 0
-0.375 0 0
-0.25 0 0
-0.375 0.125 0
-0.25 0.125 0
-0.75 -0.125 0
-0.625 -0.125 0
-0.75 0 0
-0.625 0 0
-0.375 -0.125 0
-0.25 -0.125 0
-0.375 0 0
-0.25 0 0
-1 0.25 0
-0.875 0.25 0
-1 0.375 0
-0.875 0.375 0
-0.125 0.25 0
0 0.25 0
-0.125 0.375 0
0 0.375 0
-0.75 -1 0
-0.625 -1 0
-0.75 -0.875 0
-0.625 -0.875 0
-0.375 -1 0
-0.25 -1 0
-0.375 -0.875 0
-0.25 -0.875 0
0.25 -1 0
0.375 -1 0
0.25 -0.875 0
0.375 -0.875 0
0 -0.75 0
0.125 -0.75 0
0 -0.625 0
0.125 -0.625 0
0.875 -0.75 0
1 -0.75 0
0.875 -0.625 0
1 -0.625 0
0 -0.375 0
0.125 -0.375 0
0 -0.25 0
0.125 -0.25 0
0.25 -0.125 0
0.375 -0.125 0
0.25 0 0
0.375 0 0
0.875 -0.375 0
1 -0.375 0
0.875 -0.25 0
1 -0.25 0
0.625 -0.125 0
0.75 -0.125 0
0.625 0 0
0.75 0 0
-1 0.625 0
-0.875 0.625 0
-1 0.75 0
-0.875 0.75 0
-0.75 0.875 0
-0.625 0.875 0
-0.75 1 0
-0.625 1 0
-0.125 0.625 0
0 0.625 0
-0.125 0.75 0
0 0.75 0
-0.375 0.875 0
-0.25 0.875 0
-0.375 1 0
-0.25 1 0
-0.75 0 0
-0.625 0 0
-0.75 0.125 0
-0.625 0.125 0
-1 -0.75 0
-0.875 -0.75 0
-1 -0.625 0
-0.875 -0.625 0
-0.125 -0.75 0
0 -0.75 0
-0.125 -0.625 0
0 -0.625 0
0.625 -1 0
0.75 -1 0
0.625 -0.875 0
0.75 -0.875 0
-1 -0.25 0
-0.875 -0.25 0
-1 -0.125 0
-0.875 -0.125 0
-0.875 -0.25 0
-0.75 -0.25 0
-0.875 -0.125 0
-0.75 -0.125 0
-1 -0.125 0
-0.875 -0.125 0
-1 0 0
-0.875 0 0
-0.875 -0.125 0
-0.75 -0.125 0
-0.875 0 0
-0.75 0 0
-0.25 -0.25 0
-0.125 -0.25 0
-0.25 -0.125 0
-0.125 -0.125 0
-0.125 -0.25 0
0 -0.25 0
-0.125 -0.125 0
0 -0.125 0
-0.25 -0.125 0
-0.125 -0.125 0
-0.25 0 0
-0.125 0 0
-0.125 -0.125 0
0 -0.125 0
-0.125 0 0
0 0 0
-1 0 0
-0.875 0 0
-1 0.125 0
-0.875 0.125 0
-0.875 0 0
-0.75 0 0
-0.875 0.125 0
-0.75 0.125 0
-1 0.125 0
-0.875 0.125 0
-1 0.25 0
-0.875 0.25 0
-0.875 0.125 0
-0.75 0.125 0
-0.875 0.25 0
-0.75 0.25 0
-0.25 0 0
-0.125 0 0
-0.25 0.125 0
-0.125 0.125 0
-0.125 0 0
0 0 0
-0.125 0.125 0
0 0.125 0
-0.25 0.125 0
-0.125 0.125 0
-0.25 0.25 0
-0.125 0.25 0
-0.125 0.125 0
0 0.125 0
-0.125 0.25 0
0 0.25 0
-1 -1 0
-0.875 -1 0
-1 -0.875 0
-0.875 -0.875 0
-0.875 -1 0
-0.75 -1 0
-0.875 -0.875 0
-0.75 -0.875 0
-1 -0.875 0
-0.875 -0.875 0
-1 -0.75 0
-0.875 -0.75 0
-0.875 -0.875 0
-0.75 -0.875 0
-0.875 -0.75 0
-0.75 -0.75 0
-0.25 -1 0
-0.125 -1 0
-0.25 -0.875 0
-0.125 -0.875 0
-0.125 -1 0
0 -1 0
-0.125 -0.875 0
0 -0.875 0
-0.25 -0.875 0
-0.125 -0.875 0
-0.25 -0.75 0
-0.125 -0.75 0
-0.125 -0.875 0
0 -0.875 0
-0.125 -0.75 0
0 -0.75 0
0 -1 0
0.125 -1 0
0 -0.875 0
0.125 -0.875 0
0.125 -1 0
0.25 -1 0
0.125 -0.875 0
0.25 -0.875 0
0 -0.875 0
0.125 -0.875 0
0 -0.75 0
0.125 -0.75 0
0.125 -0.875 0
0.25 -0.875 0
0.125 -0.75 0
0.25 -0.75 0
0.75 -1 0
0.875 -1 0
0.75 -0.875 0
0.875 -0.875 0
0.875 -1 0
1 -1 0
0.875 -0.875 0
1 -0.875 0
0.75 -0.875 0
0.875 -0.875 0
0.75 -0.75 0
0.875 -0.75 0
0.875 -0.875 0
1 -0.875 0
0.875 -0.75 0
1 -0.75 0
0 -0.25 0
0.125 -0.25 0
0 -0.125 0
0.125 -0.125 0
0.125 -0.25 0
0.25 -0.25 0
0.125 -0.125 0
0.25 -0.125 0
0 -0.125 0
0.125 -0.125 0
0 0 0
0.125 0 0
0.125 -0.125 0
0.25 -0.125 0
0.125 0 0
0.25 0 0
0.75 -0.25 0
0.875 -0.25 0
0.75 -0.125 0
0.875 -0.125 0
0.875 -0.25 0
1 -0.25 0
0.875 -0.125 0
1 -0.125 0
0.75 -0.125 0
0.875 -0.125 0
0.75 0 0
0.875 0 0
0.875 -0.125 0
1 -0.125 0
0.875 0 0
1 0 0
-1 0.75 0
-0.875 0.75 0
-1 0.875 0
-0.875 0.875 0
-0.875 0.75 0
-0.75 0.75 0
-0.875 0.875 0
-0.75 0.875 0
-1 0.875 0
-0.875 0.875 0
-1 1 0
-0.875 1 0
-0.875 0.875 0
-0.75 0.875 0
-0.875 1 0
-0.75 1 0
-0.25 0.75 0
-0.125 0.75 0
-0.25 0.875 0
-0.125 0.875 0
-0.125 0.75 0
0 0.75 0
-0.125 0.875 0
0 0.875 0
-0.25 0.875 0
-0.125 0.875 0
-0.25 1 0
-0.125 1 0
-0.125 0.875 0
0 0.875 0
-0.125 1 0
0 1 0
0.25 0 0
0.375 0 0
0.25 0.125 0
0.375 0.125 0
0.375 0 0
0.5 0 0
0.375 0.125 0
0.5 0.125 0
0.25 0.125 0
0.375 0.125 0
0.25 0.25 0
0.375 0.25 0
0.375 0.125 0
0.5 0.125 0
0.375 0.25 0
0.5 0.25 0
0 0.25 0
0.125 0.25 0
0 0.375 0
0.125 0.375 0
0.125 0.25 0
0.25 0.25 0
0.125 0.375 0
0.25 0.375 0
0 0.375 0
0.125 0.375 0
0 0.5 0
0.125 0.5 0
0.125 0.375 0
0.25 0.375 0
0.125 0.5 0
0.25 0.5 0
0.5 0 0
0.625 0 0
0.5 0.125 0
0.625 0.125 0
0.625 0 0
0.75 0 0
0.625 0.125 0
0.75 0.125 0
0.5 0.125 0
0.625 0.125 0
0.5 0.25 0
0.625 0.25 0
0.625 0.125 0
0.75 0.125 0
0.625 0.25 0
0.75 0.25 0
0 0.5 0
0.125 0.5 0
0 0.625 0
0.125 0.625 0
0.125 0.5 0
0.25 0.5 0
0.125 0.625 0
0.25 0.625 0
0 0.625 0
0.125 0.625 0
0 0.75 0
0.125 0.75 0
0.125 0.625 0
0.25 0.625 0
0.125 0.75 0
0.25 0.75 0
-0.875 -0.4375 0
-0.8125 -0.4375 0
-0.875 -0.375 0
-0.8125 -0.375 0
-0.1875 -0.4375 0
-0.125 -0.4375 0
-0.1875 -0.375 0
-0.125 -0.375 0
-0.4375 0.125 0
-0.375 0.125 0
-0.4375 0.1875 0
-0.375 0.1875 0
-0.625 -0.1875 0
-0.5625 -0.1875 0
-0.625 -0.125 0
-0.5625 -0.125 0
-0.4375 -0.1875 0
-0.375 -0.1875 0
-0.4375 -0.125 0
-0.375 -0.125 0
-0.875 0.375 0
-0.8125 0.375 0
-0.875 0.4375 0
-0.8125 0.4375 0
-0.1875 0.375 0
-0.125 0.375 0
-0.1875 0.4375 0
-0.125 0.4375 0
-0.625 -0.875 0
-0.5625 -0.875 0
-0.625 -0.8125 0
-0.5625 -0.8125 0
-0.4375 -0.875 0
-0.375 -0.875 0
-0.4375 -0.8125 0
-0.375 -0.8125 0
0.375 -0.875 0
0.4375 -0.875 0
0.375 -0.8125 0
0.4375 -0.8125 0
0.125 -0.625 0
0.1875 -0.625 0
0.125 -0.5625 0
0.1875 -0.5625 0
0.8125 -0.625 0
0.875 -0.625 0
0.8125 -0.5625 0
0.875 -0.5625 0
0.125 -0.4375 0
0.1875 -0.4375 0
0.125 -0.375 0
0.1875 -0.375 0
0.375 -0.1875 0
0.4375 -0.1875 0
0.375 -0.125 0
0.4375 -0.125 0
0.8125 -0.4375 0
0.875 -0.4375 0
0.8125 -0.375 0
0.875 -0.375 0
0.5625 -0.1875 0
0.625 -0.1875 0
0.5625 -0.125 0
0.625 -0.125 0
-0.875 0.5625 0
-0.8125 0.5625 0
-0.875 0.625 0
-0.8125 0.625 0
-0.625 0.8125 0
-0.5625 0.8125 0
-0.625 0.875 0
-0.5625 0.875 0
-0.1875 0.5625 0
-0.125 0.5625 0
-0.1875 0.625 0
-0.125 0.625 0
-0.4375 0.8125 0
-0.375 0.8125 0
-0.4375 0.875 0
-0.375 0.875 0
-0.875 -0.375 0
-0.8125 -0.375 0
-0.875 -0.3125 0
-0.8125 -0.3125 0
-0.8125 -0.375 0
-0.75 -0.375 0
-0.8125 -0.3125 0
-0.75 -0.3125 0
-0.875 -0.3125 0
-0.8125 -0.3125 0
-0.875 -0.25 0
-0.8125 -0.25 0
-0.8125 -0.3125 0
-0.75 -0.3125 0
-0.8125 -0.25 0
-0.75 -0.25 0
-0.6875 -0.375 0
-0.625 -0.375 0
-0.6875 -0.3125 0
-0.625 -0.3125 0
-0.75 -0.3125 0
-0.6875 -0.3125 0
-0.75 -0.25 0
-0.6875 -0.25 0
-0.375 -0.375 0
-0.3125 -0.375 0
-0.375 -0.3125 0
-0.3125 -0.3125 0
-0.3125 -0.3125 0
-0.25 -0.3125 0
-0.3125 -0.25 0
-0.25 -0.25 0
-0.25 -0.375 0
-0.1875 -0.375 0
-0.25 -0.3125 0
-0.1875 -0.3125 0
-0.1875 -0.375 0
-0.125 -0.375 0
-0.1875 -0.3125 0
-0.125 -0.3125 0
-0.25 -0.3125 0
-0.1875 -0.3125 0
-0.25 -0.25 0
-0.1875 -0.25 0
-0.1875 -0.3125 0
-0.125 -0.3125 0
-0.1875 -0.25 0
-0.125 -0.25 0
-0.75 0.25 0
-0.6875 0.25 0
-0.75 0.3125 0
-0.6875 0.3125 0
-0.6875 0.3125 0
-0.625 0.3125 0
-0.6875 0.375 0
-0.625 0.375 0
-0.375 0.125 0
-0.3125 0.125 0
-0.375 0.1875 0
-0.3125 0.1875 0
-0.3125 0.125 0
-0.25 0.125 0
-0.3125 0.1875 0
-0.25 0.1875 0
-0.375 0.1875 0
-0.3125 0.1875 0
-0.375 0.25 0
-0.3125 0.25 0
-0.3125 0.1875 0
-0.25 0.1875 0
-0.3125 0.25 0
-0.25 0.25 0
-0.3125 0.25 0
-0.25 0.25 0
-0.3125 0.3125 0
-0.25 0.3125 0
-0.375 0.3125 0
-0.3125 0.3125 0
-0.375 0.375 0
-0.3125 0.375 0
-0.75 -0.75 0
-0.6875 -0.75 0
-0.75 -0.6875 0
-0.6875 -0.6875 0
-0.6875 -0.6875 0
-0.625 -0.6875 0
-0.6875 -0.625 0
-0.625 -0.625 0
-0.3125 -0.75 0
-0.25 -0.75 0
-0.3125 -0.6875 0
-0.25 -0.6875 0
-0.375 -0.6875 0
-0.3125 -0.6875 0
-0.375 -0.625 0
-0.3125 -0.625 0
0.25 -0.75 0
0.3125 -0.75 0
0.25 -0.6875 0
0.3125 -0.6875 0
0.3125 -0.6875 0
0.375 -0.6875 0
0.3125 -0.625 0
0.375 -0.625 0
0.6875 -0.75 0
0.75 -0.75 0
0.6875 -0.6875 0
0.75 -0.6875 0
0.625 -0.6875 0
0.6875 -0.6875 0
0.625 -0.625 0
0.6875 -0.625 0
0.3125 -0.375 0
0.375 -0.375 0
0.3125 -0.3125 0
0.375 -0.3125 0
0.25 -0.3125 0
0.3125 -0.3125 0
0.25 -0.25 0
0.3125 -0.25 0
0.625 -0.375 0
0.6875 -0.375 0
0.625 -0.3125 0
0.6875 -0.3125 0
0.6875 -0.3125 0
0.75 -0.3125 0
0.6875 -0.25 0
0.75 -0.25 0
-0.6875 0.625 0
-0.625 0.625 0
-0.6875 0.6875 0
-0.625 0.6875 0
-0.75 0.6875 0
-0.6875 0.6875 0
-0.75 0.75 0
-0.6875 0.75 0
-0.375 0.625 0
-0.3125 0.625 0
-0.375 0.6875 0
-0.3125 0.6875 0
-0.3125 0.6875 0
-0.25 0.6875 0
-0.3125 0.75 0
-0.25 0.75 0
-0.75 -0.25 0
-0.6875 -0.25 0
-0.75 -0.1875 0
-0.6875 -0.1875 0
-0.6875 -0.25 0
-0.625 -0.25 0
-0.6875 -0.1875 0
-0.625 -0.1875 0
-0.75 -0.1875 0
-0.6875 -0.1875 0
-0.75 -0.125 0
-0.6875 -0.125 0
-0.6875 -0.1875 0
-0.625 -0.1875 0
-0.6875 -0.125 0
-0.625 -0.125 0
-0.375 -0.25 0
-0.3125 -0.25 0
-0.375 -0.1875 0
-0.3125 -0.1875 0
-0.3125 -0.25 0
-0.25 -0.25 0
-0.3125 -0.1875 0
-0.25 -0.1875 0
-0.375 -0.1875 0
-0.3125 -0.1875 0
-0.375 -0.125 0
-0.3125 -0.125 0
-0.3125 -0.1875 0
-0.25 -0.1875 0
-0.3125 -0.125 0
-0.25 -0.125 0
-0.875 0.25 0
-0.8125 0.25 0
-0.875 0.3125 0
-0.8125 0.3125 0
-0.8125 0.25 0
-0.75 0.25 0
-0.8125 0.3125 0
-0.75 0.3125 0
-0.875 0.3125 0
-0.8125 0.3125 0
-0.875 0.375 0
-0.8125 0.375 0
-0.8125 0.3125 0
-0.75 0.3125 0
-0.8125 0.375 0
-0.75 0.375 0
-0.25 0.25 0
-0.1875 0.25 0
-0.25 0.3125 0
-0.1875 0.3125 0
-0.1875 0.25 0
-0.125 0.25 0
-0.1875 0.3125 0
-0.125 0.3125 0
-0.25 0.3125 0
-0.1875 0.3125 0
-0.25 0.375 0
-0.1875 0.375 0
-0.1875 0.3125 0
-0.125 0.3125 0
-0.1875 0.375 0
-0.125 0.375 0
-0.75 -0.875 0
-0.6875 -0.875 0
-0.75 -0.8125 0
-0.6875 -0.8125 0
-0.6875 -0.875 0
-0.625 -0.875 0
-0.6875 -0.8125 0
-0.625 -0.8125 0
-0.75 -0.8125 0
-0.6875 -0.8125 0
-0.75 -0.75 0
-0.6875 -0.75 0
-0.6875 -0.8125 0
-0.625 -0.8125 0
-0.6875 -0.75 0
-0.625 -0.75 0
-0.375 -0.875 0
-0.3125 -0.875 0
-0.375 -0.8125 0
-0.3125 -0.8125 0
-0.3125 -0.875 0
-0.25 -0.875 0
-0.3125 -0.8125 0
-0.25 -0.8125 0
-0.375 -0.8125 0
-0.3125 -0.8125 0
-0.375 -0.75 0
[...]
POINT_DATA 5860
VECTORS gradient double
-0.000666059 -0.000667882 0
-0.000682417 2.40086e-06 0
-1.06384e-05 -0.000662321 0
1.39442e-05 -1.17596e-05 0
0.00339257 0.00362362 0
0.00592793 0.0151213 0
0.0148499 0.00598653 0
-0.00715508 -0.00711536 0
0.000529495 0.000619925 0
-0.000264782 -0.00126211 0
-0.00125109 -0.000246626 0
-0.000544425 -0.000483941 0
-0.00374459 0.0179344 0
-0.00207658 -0.000388555 0
-0.000601528 -0.00695452 0
0.00179669 0.000823677 0
-0.000857565 -0.00130346 0
-0.00045611 0.000803323 0
-0.000654076 -0.000469815 0
-0.000586908 -0.000579449 0
-0.000471237 -0.00199593 0
-0.0018283 0.00019847 0
-0.000568225 -0.000302331 0
-0.000799209 9.12492e-05 0
-0.00130338 -0.000855436 0
-0.000496471 -0.000610693 0
0.000701173 -0.000434271 0
-0.000595904 -0.000621704 0
0.0175143 -0.00427848 0
-0.00673765 -0.000551823 0
-0.000115017 -0.00154445 0
0.000823041 0.00152056 0
-0.00199828 -0.000497528 0
-0.000450899 -0.000614548 0
0.000198774 -0.00191748 0
0.000136116 -0.000748865 0
-0.0685329 -0.14626 0
-1.21515 0.547089 0
0.00175865 0.0728739 0
-0.37007 0.175332 0
1.2226 0.529852 0
-0.0434497 -0.109862 0
0.374328 0.182602 0
-0.0296948 0.0820812 0
-0.11032 0.0410887 0
0.081706 0.0269816 0
0.529036 -1.22503 0
0.181576 -0.377034 0
-0.185726 0.370351 0
-0.522715 1.21912 0
-0.0826245 -0.0271237 0
0.103623 -0.0403164 0
0.528352 1.2227 0
0.182138 0.374899 0
-0.111196 -0.0422615 0
0.0824734 -0.0287739 0
0.0011267 -0.0795663 0
-0.371002 -0.172102 0
-0.0630652 0.14285 0
-1.21463 -0.5486 0
0.37013 -0.177362 0
-0.0140994 -0.0907336 0
1.21267 -0.54844 0
0.0325949 0.170242 0
-0.073061 0.00403611 0
0.137943 -0.0643216 0
-0.177919 -0.3642 0
-0.541177 -1.21234 0
-0.144643 -0.0629322 0
0.0777234 0.00116283 0
0.546681 -1.21425 0
0.170182 -0.370747 0
-0.074668 0.00197478 0
0.144631 -0.0681383 0
-0.177024 -0.369812 0
-0.548608 -1.21481 0
0.0252317 -0.0822796 0
-0.372164 -0.185408 0
0.038366 0.104043 0
-1.22098 -0.522358 0
0.363523 -0.187467 0
-0.0294599 -0.101679 0
1.21554 -0.537066 0
-0.00201144 0.19177 0
0.0399107 -0.110676 0
-1.22493 0.528504 0
0.0260698 0.0830709 0
-0.37742 0.182079 0
-0.177274 0.370469 0
-0.549332 1.21356 0
-0.0898059 -0.0141014 0
0.169921 0.0327149 0
1.21716 0.543505 0
-0.00156987 -0.200208 0
0.371616 0.18135 0
-0.0317121 0.108051 0
0.540408 1.21193 0
0.176904 0.367759 0
-0.162353 0.0344537 0
0.0892664 -0.0124729 0
-0.0648326 -0.139325 0
-1.21333 0.539297 0
0.00321099 0.0725085 0
-0.365781 0.175988 0
-0.18412 0.365674 0
-0.535481 1.21236 0
-0.106698 -0.0322151 0
0.191572 0.000535298 0
1.21002 0.53893 0
0.0351439 -0.163342 0
0.367628 0.178152 0
-0.0121575 0.0901705 0
0.542592 1.2182 0
0.186632 0.368834 0
-0.200188 -0.00451448 0
0.10238 -0.0300584 0
-0.0816421 0.026161 0
0.10202 0.0405095 0
-0.184237 -0.372264 0
-0.523859 -1.22232 0
-0.00358215 -0.0774154 0
-0.368011 -0.172984 0
-0.0685274 0.136467 0
-1.21169 -0.538529 0
0.370317 -0.183845 0
-0.0280599 -0.0812982 0
1.22031 -0.523343 0
-0.0424694 0.102451 0
-0.13694 -0.067753 0
0.0784254 -0.00277586 0
0.537656 -1.21165 0
0.172615 -0.368483 0
0.00967778 0.0511289 0
-0.27569 0.137211 0
0.00791429 0.0298182 0
-0.0592831 -0.00677977 0
-0.343162 0.049095 0
-1.82548 1.82011 0
-0.0866367 0.0857413 0
-0.0521023 0.342593 0
0.00885542 0.0262794 0
-0.00640852 -0.000186449 0
0.00450445 -0.00315233 0
-0.0231577 -0.0129623 0
-0.00316715 0.0567769 0
-0.149044 0.277186 0
-0.0259607 -0.00732284 0
-0.0579236 -0.0374529 0
1.82852 1.82872 0
0.336933 0.0492212 0
0.0485555 0.337802 0
0.0861005 0.0854267 0
0.277556 0.146054 0
-0.0377411 0.0581091 0
0.0582798 -0.000792927 0
-0.00895303 0.0283765 0
0.145788 0.278708 0
-0.00106311 0.0579506 0
0.0582162 -0.0372629 0
0.0278596 -0.00823149 0
0.0044417 0.00474641 0
-0.0109822 0.0256515 0
0.0251082 -0.0107722 0
-0.00439326 -0.00393126 0
0.00444732 0.00286411 0
-0.0229306 0.0080409 0
0.00790119 -0.0264914 0
-0.00653481 -0.00359559 0
-0.0256422 0.00641577 0
-0.0571225 0.0334775 0
-0.00297656 -0.0584926 0
-0.148231 -0.278295 0
0.0065682 -0.0303854 0
-0.0571161 0.00202441 0
0.00926697 -0.0558156 0
-0.277122 -0.136905 0
-0.0841299 -0.0890316 0
-0.0543092 -0.343749 0
-0.342831 -0.0519594 0
-1.82465 -1.82386 0
0.0576575 0.0353396 0
0.0300635 0.00645386 0
0.144954 -0.280352 0
-0.00222591 -0.0621456 0
0.0270562 0.010006 0
0.010227 0.000151885 0
0.00247593 -0.00300621 0
-0.0235477 -0.0288326 0
0.0488936 -0.339824 0
0.0877755 -0.0905464 0
1.82618 -1.83131 0
0.332962 -0.0522831 0
0.0585858 0.00276302 0
0.0186098 -0.033379 0
0.267999 -0.144748 0
-0.0264369 -0.0701823 0
0.00361579 0.00416605 0
-0.0255942 0.0096537 0
0.00565234 -0.0217239 0
-0.00377721 -0.00285035 0
-0.0291099 0.00678534 0
-0.0515836 0.0116671 0
0.000731128 -0.0571872 0
-0.1406 -0.271933 0
0.00611756 -0.0255226 0
-0.0568642 0.000457455 0
0.00554548 -0.0522339 0
-0.278167 -0.137495 0
-0.0849585 -0.0875792 0
-0.0554931 -0.34569 0
-0.349741 -0.0524204 0
-1.81656 -1.81788 0
0.0539678 0.00930304 0
0.0285011 0.00656305 0
0.134987 -0.276867 0
-0.00393047 -0.05691 0
0.0246023 0.00789591 0
-0.00477017 0.00445846 0
0.00169003 -0.00632968 0
-0.00992156 -0.0227347 0
0.0500344 -0.342558 0
0.0871251 -0.0839066 0
1.82188 -1.82422 0
0.341802 -0.0539319 0
0.0565861 -0.00275413 0
-0.00829623 -0.0254324 0
0.276351 -0.147851 0
-0.0353752 -0.056788 0
0.00124464 0.00451551 0
-0.0281679 0.00894136 0
0.011085 -0.0229624 0
-0.00163505 -0.00618764 0
-0.031703 0.00800006 0
-0.0529362 0.009894 0
0.00496653 -0.059064 0
-0.13892 -0.275418 0
0.00544612 -0.0257517 0
-0.0585961 -0.00293815 0
0.0355619 -0.057589 0
-0.279008 -0.148733 0
-0.087552 -0.0864093 0
-0.0507946 -0.342891 0
-0.344404 -0.0518 0
-1.82182 -1.82519 0
0.0533971 0.00633726 0
0.030593 0.00656747 0
0.137099 -0.279339 0
0.00165771 -0.0611119 0
0.0272007 0.00560371 0
0.0117879 0.00109867 0
0.0057933 -0.00606932 0
-0.0143044 -0.0293598 0
0.0531838 -0.351206 0
0.0903791 -0.0902639 0
1.81555 -1.81705 0
0.337172 -0.0569155 0
0.0594537 -0.00233096 0
0.0215882 -0.0350073 0
0.262207 -0.150769 0
-0.0155304 -0.0805599 0
0.0348703 0.0587376 0
-0.281314 0.145655 0
0.00574093 0.030431 0
-0.0616072 -0.00157912 0
-0.34049 0.0492322 0
-1.8311 1.82691 0
-0.0896741 0.0894474 0
-0.0525381 0.332999 0
0.00981524 0.0273898 0
-0.00310507 0.00306405 0
-0.000292679 0.0103078 0
-0.0290282 -0.0229271 0
0.00268686 0.0599285 0
-0.144523 0.267728 0
-0.0335819 0.0184476 0
-0.0696407 -0.0259138 0
1.82298 1.82142 0
0.334936 0.0531924 0
0.0568919 0.340197 0
0.0890547 0.0965337 0
0.268214 0.146853 0
-0.0169977 0.0844868 0
0.0607108 -0.000713283 0
0.0229927 0.0384758 0
0.144713 0.268466 0
0.00160695 0.0633148 0
0.0689191 -0.0225491 0
0.0323058 0.0203072 0
0.00602303 0.00331055 0
-0.0139536 0.0322224 0
0.0278361 -0.0209606 0
0.0154669 0.0114052 0
0.0108534 0.0510423 0
-0.274239 0.138586 0
0.00556157 0.0321635 0
-0.0624044 -0.00129995 0
-0.348269 0.0545415 0
-1.81937 1.81275 0
-0.0937658 0.0852209 0
-0.0549944 0.338731 0
0.00772414 0.0287357 0
-0.0062637 0.00405556 0
5.86036e-05 0.0146686 0
-0.0277414 -0.0173876 0
-0.00358911 0.0562008 0
-0.149477 0.266116 0
-0.0333698 0.0227796 0
-0.0826088 -0.0193189 0
1.81921 1.82299 0
0.340884 0.0538551 0
0.0515696 0.333579 0
0.0950143 0.091157 0
0.26926 0.14509 0
-0.0251704 0.069355 0
0.0631744 0.00114711 0
0.0230184 0.0324259 0
0.149152 0.264974 0
-0.00304797 0.0624721 0
0.0814402 -0.0177354 0
0.0407879 0.0238988 0
0.00198679 0.00528938 0
-0.024561 0.0278424 0
0.034261 -0.0140486 0
0.0135041 0.0157872 0
0.0248405 0.014642 0
-0.0245452 0.0665119 0
-0.0273584 -0.00711687 0
-0.0237539 -0.0126754 0
-0.0217117 0.141638 0
0.00311471 0.145922 0
-0.0224805 -0.016014 0
0.000310456 -0.0197347 0
0.00374056 -0.00466088 0
-0.000124702 0.00152584 0
0.00280765 0.000293695 0
-0.000661904 -0.00134456 0
0.000302217 0.00218282 0
-0.000405342 0.0031586 0
-0.00035493 -0.00240109 0
-0.000354687 -0.0019114 0
0.0144475 0.0250741 0
-0.00720755 -0.0276049 0
0.0668 -0.0254266 0
-0.0127388 -0.0236853 0
-0.0047558 0.0037846 0
0.000132182 0.00288884 0
0.0015153 -0.000351079 0
-0.00131575 -0.000664071 0
0.141001 -0.0224452 0
-0.0154693 -0.0223634 0
0.145772 0.0030472 0
-0.0195248 0.00046623 0
0.00256006 0.000134039 0
-0.00240865 -0.000347787 0
0.00325897 -0.000344873 0
-0.00191416 -0.000319153 0
-0.00479964 0.146209 0
0.0202174 0.139359 0
0.000261009 -0.0195742 0
0.021422 -0.0161299 0
0.0231687 0.0668099 0
-0.0225612 0.014193 0
0.0223622 -0.0129098 0
0.0252277 -0.00807345 0
-0.000747523 0.00336902 0
-0.00126058 0.00211365 0
-0.000580894 -0.00173263 0
-0.000764275 -0.00243365 0
-0.000813039 0.00139144 0
-0.004701 -0.00543328 0
-0.000391529 -0.00113344 0
-0.00544186 0.00074049 0
0.146139 -0.00525279 0
-0.0194349 0.000442528 0
0.138871 0.0209877 0
-0.0153572 0.0214403 0
0.00343653 -0.000761779 0
-0.00172695 -0.000555438 0
0.00252424 -0.00100099 0
-0.00245656 -0.000733039 0
0.0679156 0.0241854 0
-0.0130262 0.0224012 0
0.014562 -0.0229121 0
-0.00810145 0.0248891 0
0.00129855 -0.000478577 0
-0.00113917 -0.000386646 0
-0.00549873 -0.00499562 0
0.000605533 -0.00516888 0
-2.05177 0.0604975 0
-4.69113 1.26847 0
-1.52095 0.443348 0
-3.61592 1.35691 0
4.68545 1.26566 0
2.04199 0.0592519 0
3.61836 1.35697 0
1.50609 0.451271 0
0.0585247 -2.04424 0
0.450485 -1.5085 0
1.26478 -4.68768 0
1.35598 -3.62075 0
-1.35603 3.61295 0
-1.26007 4.68396 0
-0.456494 1.50789 0
-0.0639251 2.0426 0
1.26576 4.68548 0
1.35442 3.61794 0
0.0558576 2.04189 0
0.452544 1.50871 0
-1.52467 -0.450558 0
-3.61747 -1.35059 0
-2.05007 -0.0625315 0
-4.69091 -1.27057 0
3.61619 -1.35316 0
1.51513 -0.447939 0
4.68554 -1.26892 0
2.05182 -0.0558312 0
-0.447769 -1.51736 0
-0.0710322 -2.05114 0
-1.35636 -3.61182 0
-1.26094 -4.68932 0
0.0606016 -2.04957 0
0.448621 -1.52428 0
1.26853 -4.6903 0
1.34856 -3.61698 0
-0.444843 -1.52063 0
-0.0618799 -2.05142 0
-1.35839 -3.61565 0
-1.26985 -4.69084 0
-1.50974 -0.456137 0
-3.61473 -1.35568 0
-2.04446 -0.063581 0
-4.68574 -1.25973 0
3.60916 -1.35586 0
1.51042 -0.446801 0
4.6894 -1.25893 0
2.04976 -0.0658763 0
-2.04392 0.0560855 0
-4.68736 1.26581 0
-1.51091 0.452716 0
-3.62002 1.35437 0
-1.35502 3.61762 0
-1.26807 4.68656 0
-0.445838 1.51343 0
-0.0585608 2.05298 0
4.69044 1.26714 0
2.04841 0.0560942 0
3.61448 1.34885 0
1.51702 0.448739 0
1.25852 4.68581 0
1.34978 3.61457 0
0.0640736 2.05354 0
0.449479 1.51432 0
-2.0519 0.0691908 0
-4.6902 1.2589 0
-1.51829 0.445975 0
-3.61285 1.35424 0
-1.34822 3.60748 0
-1.26146 4.68764 0
-0.453963 1.51668 0
-0.0605637 2.04763 0
4.68441 1.25969 0
2.05272 0.060816 0
3.61195 1.35139 0
1.51469 0.449163 0
1.26658 4.68971 0
1.35684 3.61216 0
0.055853 2.04852 0
0.443375 1.51211 0
-1.52196 0.432665 0
-3.54545 1.37477 0
-0.728628 0.585009 0
-2.06142 1.14737 0
-3.7451 1.22088 0
-6.785 3.64278 0
-2.1458 1.2402 0
-4.26809 3.25736 0
-0.90942 0.584988 0
-2.10957 1.1244 0
-0.541433 0.628889 0
-1.00395 0.373904 0
-2.1815 1.20953 0
-4.16594 3.18775 0
-0.959025 0.761679 0
-2.02525 2.42781 0
-11.2263 7.48694 0
-11.2022 11.1922 0
-6.07377 6.06629 0
-7.47955 11.2368 0
-4.36345 3.22063 0
-6.22977 6.2263 0
-2.15612 2.15395 0
-3.21753 4.36311 0
11.1907 11.1897 0
11.2365 7.48676 0
7.48472 11.2377 0
6.06091 6.06151 0
6.2252 6.2267 0
4.36071 3.22198 0
3.22131 4.36147 0
2.15107 2.15312 0
6.77548 3.64356 0
3.74652 1.21932 0
4.27336 3.25625 0
2.14065 1.23947 0
3.54767 1.37479 0
1.52739 0.439747 0
2.05692 1.14607 0
0.721655 0.58851 0
4.16204 3.19201 0
2.18211 1.21159 0
2.02095 2.41972 0
0.959883 0.76022 0
2.11189 1.12518 0
0.915326 0.588792 0
1.00454 0.380392 0
0.536918 0.620161 0
-2.15588 -2.15306 0
-3.21825 -4.36705 0
-4.36478 -3.2232 0
-6.22832 -6.22614 0
-6.07236 -6.0662 0
-7.47644 -11.2428 0
-11.2304 -7.48478 0
-11.2005 -11.1938 0
0.438962 -1.52979 0
0.587703 -0.724282 0
1.3738 -3.55005 0
1.1449 -2.05948 0
0.587971 -0.917821 0
0.619807 -0.539667 0
1.12399 -2.11465 0
0.379364 -1.00775 0
1.21838 -3.7489 0
1.23847 -2.14321 0
3.64242 -6.77781 0
3.25489 -4.27581 0
1.21059 -2.18488 0
0.758726 -0.963105 0
3.19066 -4.16434 0
2.4174 -2.02326 0
3.22065 -4.36298 0
2.15163 -2.1533 0
6.22549 -6.22734 0
4.35999 -3.2233 0
7.48565 -11.2391 0
6.06034 -6.06296 0
11.1892 -11.1934 0
11.2371 -7.48661 0
-2.15892 -2.15348 0
-3.21765 -4.36629 0
-4.36753 -3.21614 0
-6.22925 -6.22679 0
-6.0777 -6.07591 0
-7.47821 -11.2289 0
-11.2308 -7.47527 0
-11.2019 -11.204 0
3.22117 -4.36433 0
2.15106 -2.15545 0
6.22411 -6.22781 0
4.36505 -3.21775 0
7.48266 -11.23 0
6.06414 -6.07186 0
11.192 -11.2001 0
11.2409 -7.47582 0
-2.15565 -2.15585 0
-3.22225 -4.36321 0
-4.36486 -3.21724 0
-6.22798 -6.22956 0
-6.06797 -6.07351 0
-7.48843 -11.2263 0
-11.2388 -7.47933 0
-11.194 -11.2024 0
3.21461 -4.36766 0
2.15156 -2.15929 0
6.22526 -6.22908 0
4.36446 -3.21747 0
7.47384 -11.2307 0
6.07436 -6.07756 0
11.2026 -11.2017 0
11.2275 -7.4779 0
-11.2402 7.48456 0
-11.1922 11.1918 0
-6.06305 6.06075 0
-7.48791 11.2373 0
-4.36334 3.22097 0
-6.22835 6.22504 0
-2.15491 2.15056 0
-3.22341 4.36027 0
11.1992 11.1925 0
11.2289 7.48283 0
7.47443 11.2415 0
6.07043 6.06445 0
6.22647 6.22431 0
4.36277 3.22141 0
3.21642 4.36534 0
2.15388 2.15176 0
-11.2292 7.47583 0
-11.2037 11.1988 0
-6.07672 6.07469 0
-7.47587 11.2272 0
-4.36741 3.21479 0
-6.2275 6.22622 0
-2.155 2.15531 0
-3.21705 4.36388 0
11.1915 11.1998 0
11.2364 7.4771 0
7.48642 11.2237 0
6.06585 6.07117 0
6.22572 6.22727 0
4.36266 3.21512 0
3.22021 4.36064 0
2.15399 2.15337 0
-2.42514 2.01513 0
-3.19013 4.15472 0
-0.743592 0.96324 0
-1.2168 2.18641 0
-3.25386 4.27152 0
-3.63913 6.77154 0
-1.24492 2.14581 0
-1.22518 3.74827 0
-0.385131 1.00838 0
-1.13069 2.11181 0
-0.625742 0.539241 0
-0.583518 0.917253 0
-1.15093 2.05519 0
-1.37479 3.54261 0
-0.584651 0.721792 0
-0.444585 1.53206 0
3.64482 6.77521 0
3.25487 4.27403 0
1.21663 3.74521 0
1.2404 2.14116 0
3.19144 4.16263 0
2.4173 2.02287 0
1.21187 2.18182 0
0.761769 0.957363 0
1.37283 3.54693 0
1.14473 2.05776 0
0.440902 1.52958 0
0.588496 0.719511 0
1.12372 2.11188 0
0.38164 1.00255 0
0.588642 0.915928 0
0.617341 0.538006 0
-0.542675 -0.614601 0
-1.00305 -0.395308 0
-0.909798 -0.590748 0
-2.11231 -1.12193 0
-0.955233 -0.769378 0
-2.02451 -2.42279 0
-2.18295 -1.21109 0
-4.16614 -3.19115 0
-0.731573 -0.590047 0
-2.06217 -1.14574 0
-1.5234 -0.439156 0
-3.54708 -1.36921 0
-2.1438 -1.24227 0
-4.26544 -3.25943 0
-3.74572 -1.21931 0
-6.7834 -3.64703 0
2.02132 -2.42014 0
0.954771 -0.764396 0
4.1611 -3.19324 0
2.17941 -1.21321 0
0.999937 -0.383207 0
0.535499 -0.620845 0
2.10925 -1.12518 0
0.915016 -0.590426 0
4.27239 -3.25665 0
2.13949 -1.24169 0
6.77401 -3.64641 0
3.74411 -1.21737 0
2.05596 -1.14626 0
0.717125 -0.590501 0
3.54568 -1.37177 0
1.52632 -0.436678 0
-0.633681 -0.541274 0
-0.581627 -0.910315 0
-0.385415 -1.01305 0
-1.13004 -2.11104 0
-0.58242 -0.735921 0
-0.436527 -1.52198 0
-1.15249 -2.05786 0
-1.37436 -3.54262 0
-0.744609 -0.966975 0
-1.21304 -2.1877 0
-2.43326 -2.01381 0
-3.18659 -4.15846 0
-1.24294 -2.14862 0
-1.22971 -3.74973 0
-3.25649 -4.26303 0
-3.63548 -6.78083 0
0.437221 -1.52301 0
0.588115 -0.731253 0
1.36719 -3.5466 0
1.14376 -2.06177 0
0.588816 -0.909481 0
0.612658 -0.542396 0
1.11995 -2.11191 0
0.393364 -1.00268 0
1.21728 -3.74523 0
1.24029 -2.14339 0
3.6449 -6.78289 0
3.25738 -4.26499 0
1.20911 -2.18254 0
0.767454 -0.954868 0
3.1891 -4.16568 0
2.42078 -2.02409 0
-0.630578 -0.541141 0
-0.586604 -0.909167 0
-0.375584 -1.00367 0
-1.126 -2.10931 0
-0.586631 -0.728357 0
-0.434172 -1.5216 0
-1.14897 -2.06116 0
-1.37627 -3.54516 0
-0.763367 -0.958742 0
-1.21114 -2.18124 0
-2.42951 -2.02497 0
-3.18936 -4.1657 0
-1.24179 -2.14554 0
-1.22237 -3.74481 0
-3.25897 -4.26785 0
-3.64427 -6.78478 0
-0.541035 -0.625421 0
-1.01014 -0.38485 0
-0.919085 -0.583171 0
-2.1136 -1.13037 0
-0.965003 -0.743308 0
-2.01683 -2.42484 0
-2.1882 -1.21648 0
-4.15647 -3.18982 0
-0.72363 -0.584304 0
-2.05697 -1.15061 0
-1.5339 -0.444231 0
-3.5444 -1.37444 0
-2.14759 -1.2446 0
-4.27327 -3.25356 0
-3.75006 -1.22482 0
-6.77331 -3.63877 0
2.01183 -2.43339 0
0.964828 -0.744543 0
4.1566 -3.18643 0
2.18565 -1.21275 0
1.01091 -0.385345 0
0.538946 -0.633653 0
2.10899 -1.12976 0
0.908139 -0.581316 0
4.26124 -3.25632 0
2.14651 -1.24265 0
6.77916 -3.63488 0
3.74753 -1.22889 0
2.05574 -1.1522 0
0.7338 -0.582119 0
3.54041 -1.37407 0
1.51975 -0.436086 0
-1.53176 0.441078 0
-3.54902 1.37278 0
-0.721936 0.588662 0
-2.06002 1.14452 0
-3.74729 1.21664 0
-6.77717 3.64459 0
-2.14342 1.24037 0
-4.27611 3.25447 0
-0.918225 0.588793 0
-2.11436 1.12349 0
-0.540546 0.61795 0
-1.00548 0.381626 0
-2.1843 1.21186 0
-4.16455 3.19105 0
-0.960313 0.76127 0
-2.02475 2.41588 0
-2.42214 2.02038 0
-3.19325 4.16154 0
-0.762386 0.958239 0
-1.21233 2.1807 0
-3.25746 4.27275 0
-3.64445 6.77533 0
-1.24016 2.13998 0
-1.21934 3.74641 0
-0.381482 1.00288 0
-1.12603 2.11026 0
-0.623215 0.535301 0
-0.589961 0.915422 0
-1.14699 2.05611 0
-1.37304 3.54741 0
-0.589912 0.72029 0
-0.434723 1.52509 0
6.78142 3.64483 0
3.74321 1.21736 0
4.26372 3.25759 0
2.14189 1.24093 0
3.54457 1.36772 0
1.52059 0.437947 0
2.06026 1.1443 0
0.729625 0.589337 0
4.16413 3.18933 0
2.18128 1.20977 0
2.02255 2.42019 0
0.954275 0.767774 0
2.11063 1.12048 0
0.90786 0.590007 0
1.00208 0.394172 0
0.541242 0.614401 0
3.63556 6.77205 0
3.25209 4.26996 0
1.22343 3.75137 0
1.24127 2.14523 0
3.18838 4.15618 0
2.42071 2.01281 0
1.21354 2.18892 0
0.743806 0.966861 0
1.36847 3.54549 0
1.14832 2.05532 0
0.437736 1.52849 0
0.58543 0.727703 0
1.12768 2.11413 0
0.391338 1.01313 0
0.584659 0.918608 0
0.624003 0.539039 0
-1.52293 0.434742 0
-3.54366 1.37224 0
-0.737297 0.580675 0
-2.05926 1.15015 0
-3.75078 1.22767 0
-6.78174 3.63311 0
-2.15003 1.24074 0
-4.26428 3.25368 0
-0.91152 0.579855 0
-2.11265 1.12767 0
-0.542907 0.632607 0
-1.01545 0.383195 0
-2.18931 1.21085 0
-4.15964 3.18377 0
-0.96938 0.741866 0
-2.01545 2.42939 0
-2.42679 2.01509 0
-3.18771 4.15555 0
-0.751249 0.955322 0
-1.21472 2.18376 0
-3.25549 4.26034 0
-3.6405 6.77603 0
-1.24616 2.14514 0
-1.22343 3.74365 0
-0.398298 1.00393 0
-1.12613 2.10858 0
-0.619264 0.541584 0
-0.584279 0.907972 0
-1.14925 2.05671 0
-1.3681 3.53814 0
-0.585088 0.728282 0
-0.442708 1.52373 0
6.77094 3.63671 0
3.74794 1.22252 0
4.27107 3.2513 0
2.14556 1.24276 0
3.54214 1.37035 0
1.52968 0.437654 0
2.0548 1.14883 0
0.720987 0.58383 0
4.15428 3.1876 0
2.18568 1.21469 0
2.01525 2.42259 0
0.963326 0.74229 0
2.11086 1.1285 0
0.917653 0.582453 0
1.00844 0.383377 0
0.538706 0.627138 0
3.6421 6.78223 0
3.25694 4.2655 0
1.22035 3.74175 0
1.24016 2.14289 0
3.18734 4.16312 0
2.42673 2.0225 0
1.2095 2.17893 0
0.761339 0.95692 0
1.37491 3.54208 0
1.1471 2.0585 0
0.433213 1.51902 0
0.585207 0.725933 0
1.12412 2.10699 0
0.374011 1.00185 0
0.585174 0.90638 0
0.62987 0.538559 0
-0.621946 -0.541362 0
-0.585447 -0.919593 0
-0.392447 -1.0146 0
-1.12949 -2.11644 0
-0.585945 -0.729879 0
-0.444768 -1.53216 0
-1.15005 -2.05708 0
-1.37275 -3.54726 0
-0.744462 -0.968311 0
-1.21524 -2.19101 0
-2.42242 -2.01405 0
-3.19037 -4.15789 0
-1.24303 -2.14686 0
-1.22593 -3.75298 0
-3.25412 -4.27169 0
-3.63772 -6.7738 0
-0.456959 -1.50878 0
-0.0671587 -2.04452 0
-1.35429 -3.61684 0
-1.25891 -4.68647 0
-0.546021 -0.617955 0
-1.00798 -0.397294 0
-0.912453 -0.583184 0
-2.11269 -1.12519 0
-0.959398 -0.750251 0
-2.01879 -2.42557 0
-2.18787 -1.21383 0
-4.15924 -3.18675 0
-0.732794 -0.583984 0
-2.06088 -1.14832 0
-1.52852 -0.441885 0
-3.54253 -1.36719 0
-2.14931 -1.24527 0
-4.26392 -3.25453 0
-3.74802 -1.22309 0
-6.77963 -3.63998 0
-1.52679 -0.453732 0
-3.6123 -1.34755 0
-2.05114 -0.0650726 0
-4.68961 -1.26263 0
2.01206 -2.42198 0
0.96634 -0.744052 0
4.15589 -3.18986 0
2.18903 -1.21475 0
1.01263 -0.392038 0
0.539391 -0.621554 0
2.11446 -1.129 0
0.917636 -0.584986 0
4.26969 -3.2536 0
2.14487 -1.24254 0
6.77178 -3.63712 0
3.75096 -1.22536 0
2.05509 -1.14956 0
0.727922 -0.585488 0
3.54523 -1.37218 0
1.53012 -0.444247 0
3.61482 -1.35372 0
1.50677 -0.456431 0
4.68439 -1.25826 0
2.04244 -0.0665648 0
0.0640595 -2.05086 0
0.452978 -1.52663 0
1.26142 -4.68945 0
1.34645 -3.6123 0
0.441173 -1.52834 0
0.583546 -0.733215 0
1.36611 -3.54254 0
1.14725 -2.0613 0
0.582704 -0.912656 0
0.618518 -0.546449 0
1.12408 -2.11335 0
0.396707 -1.00942 0
1.22209 -3.74802 0
1.24438 -2.14972 0