# vtk DataFile Version 3.0
#This file was generated by the deal.II library on 2020/8/22 at 21:54:03
ASCII
DATASET UNSTRUCTURED_GRID

POINTS 256 double
-1 -1 0
-1 -0.833333 0
-1 -0.666667 0
-1 -0.5 0
-0.5 -1 0
-0.5 -0.833333 0
-0.5 -0.666667 0
-0.5 -0.5 0
-1 -1 0
-0.833333 -1 0
-0.666667 -1 0
-0.5 -1 0
-1 -0.5 0
-0.833333 -0.5 0
-0.666667 -0.5 0
-0.5 -0.5 0
-0.5 -1 0
-0.5 -0.833333 0
-0.5 -0.666667 0
-0.5 -0.5 0
0 -1 0
0 -0.833333 0
0 -0.666667 0
0 -0.5 0
-0.5 -1 0
-0.333333 -1 0
-0.166667 -1 0
0 -1 0
-0.5 -0.5 0
-0.333333 -0.5 0
-0.166667 -0.5 0
0 -0.5 0
-1 -0.5 0
-1 -0.333333 0
-1 -0.166667 0
-1 0 0
-0.5 -0.5 0
-0.5 -0.333333 0
-0.5 -0.166667 0
-0.5 0 0
-1 -0.5 0
-0.833333 -0.5 0
-0.666667 -0.5 0
-0.5 -0.5 0
-1 0 0
-0.833333 0 0
-0.666667 0 0
-0.5 0 0
-0.5 -0.5 0
-0.5 -0.333333 0
-0.5 -0.166667 0
-0.5 0 0
0 -0.5 0
0 -0.333333 0
0 -0.166667 0
0 0 0
-0.5 -0.5 0
-0.333333 -0.5 0
-0.166667 -0.5 0
0 -0.5 0
-0.5 0 0
-0.333333 0 0
-0.166667 0 0
0 0 0
0 -1 0
0 -0.833333 0
0 -0.666667 0
0 -0.5 0
0.5 -1 0
0.5 -0.833333 0
0.5 -0.666667 0
0.5 -0.5 0
0 -1 0
0.166667 -1 0
0.333333 -1 0
0.5 -1 0
0 -0.5 0
0.166667 -0.5 0
0.333333 -0.5 0
0.5 -0.5 0
0.5 -1 0
0.5 -0.833333 0
0.5 -0.666667 0
0.5 -0.5 0
1 -1 0
1 -0.833333 0
1 -0.666667 0
1 -0.5 0
0.5 -1 0
0.666667 -1 0
0.833333 -1 0
1 -1 0
0.5 -0.5 0
0.666667 -0.5 0
0.833333 -0.5 0
1 -0.5 0
0 -0.5 0
0 -0.333333 0
0 -0.166667 0
0 0 0
0.5 -0.5 0
0.5 -0.333333 0
0.5 -0.166667 0
0.5 0 0
0 -0.5 0
0.166667 -0.5 0
0.333333 -0.5 0
0.5 -0.5 0
0 0 0
0.166667 0 0
0.333333 0 0
0.5 0 0
0.5 -0.5 0
0.5 -0.333333 0
0.5 -0.166667 0
0.5 0 0
1 -0.5 0
1 -0.333333 0
1 -0.166667 0
1 0 0
0.5 -0.5 0
0.666667 -0.5 0
0.833333 -0.5 0
1 -0.5 0
0.5 0 0
0.666667 0 0
0.833333 0 0
1 0 0
-1 0 0
-1 0.166667 0
-1 0.333333 0
-1 0.5 0
-0.5 0 0
-0.5 0.166667 0
-0.5 0.333333 0
-0.5 0.5 0
-1 0 0
-0.833333 0 0
-0.666667 0 0
-0.5 0 0
-1 0.5 0
-0.833333 0.5 0
-0.666667 0.5 0
-0.5 0.5 0
-0.5 0 0
-0.5 0.166667 0
-0.5 0.333333 0
-0.5 0.5 0
0 0 0
0 0.166667 0
0 0.333333 0
0 0.5 0
-0.5 0 0
-0.333333 0 0
-0.166667 0 0
0 0 0
-0.5 0.5 0
-0.333333 0.5 0
-0.166667 0.5 0
0 0.5 0
-1 0.5 0
-1 0.666667 0
-1 0.833333 0
-1 1 0
-0.5 0.5 0
-0.5 0.666667 0
-0.5 0.833333 0
-0.5 1 0
-1 0.5 0
-0.833333 0.5 0
-0.666667 0.5 0
-0.5 0.5 0
-1 1 0
-0.833333 1 0
-0.666667 1 0
-0.5 1 0
-0.5 0.5 0
-0.5 0.666667 0
-0.5 0.833333 0
-0.5 1 0
0 0.5 0
0 0.666667 0
0 0.833333 0
0 1 0
-0.5 0.5 0
-0.333333 0.5 0
-0.166667 0.5 0
0 0.5 0
-0.5 1 0
-0.333333 1 0
-0.166667 1 0
0 1 0
0 0 0
0 0.166667 0
0 0.333333 0
0 0.5 0
0.5 0 0
0.5 0.166667 0
0.5 0.333333 0
0.5 0.5 0
0 0 0
0.166667 0 0
0.333333 0 0
0.5 0 0
0 0.5 0
0.166667 0.5 0
0.333333 0.5 0
0.5 0.5 0
0.5 0 0
0.5 0.166667 0
0.5 0.333333 0
0.5 0.5 0
1 0 0
1 0.166667 0
1 0.333333 0
1 0.5 0
0.5 0 0
0.666667 0 0
0.833333 0 0
1 0 0
0.5 0.5 0
0.666667 0.5 0
0.833333 0.5 0
1 0.5 0
0 0.5 0
0 0.666667 0
0 0.833333 0
0 1 0
0.5 0.5 0
0.5 0.666667 0
0.5 0.833333 0
0.5 1 0
0 0.5 0
0.166667 0.5 0
0.333333 0.5 0
0.5 0.5 0
0 1 0
0.166667 1 0
0.333333 1 0
0.5 1 0
0.5 0.5 0
0.5 0.666667 0
0.5 0.833333 0
0.5 1 0
1 0.5 0
1 0.666667 0
1 0.833333 0
1 1 0
0.5 0.5 0
0.666667 0.5 0
0.833333 0.5 0
1 0.5 0
0.5 1 0
0.666667 1 0
0.833333 1 0
1 1 0

CELLS 192 576
2	0	1
2	1	2
2	2	3
2	4	5
2	5	6
2	6	7
2	8	9
2	9	10
2	10	11
2	12	13
2	13	14
2	14	15
2	16	17
2	17	18
2	18	19
2	20	21
2	21	22
2	22	23
2	24	25
2	25	26
2	26	27
2	28	29
2	29	30
2	30	31
2	32	33
2	33	34
2	34	35
2	36	37
2	37	38
2	38	39
2	40	41
2	41	42
2	42	43
2	44	45
2	45	46
2	46	47
2	48	49
2	49	50
2	50	51
2	52	53
2	53	54
2	54	55
2	56	57
2	57	58
2	58	59
2	60	61
2	61	62
2	62	63
2	64	65
2	65	66
2	66	67
2	68	69
2	69	70
2	70	71
2	72	73
2	73	74
2	74	75
2	76	77
2	77	78
2	78	79
2	80	81
2	81	82
2	82	83
2	84	85
2	85	86
2	86	87
2	88	89
2	89	90
2	90	91
2	92	93
2	93	94
2	94	95
2	96	97
2	97	98
2	98	99
2	100	101
2	101	102
2	102	103
2	104	105
2	105	106
2	106	107
2	108	109
2	109	110
2	110	111
2	112	113
2	113	114
2	114	115
2	116	117
2	117	118
2	118	119
2	120	121
2	121	122
2	122	123
2	124	125
2	125	126
2	126	127
2	128	129
2	129	130
2	130	131
2	132	133
2	133	134
2	134	135
2	136	137
2	137	138
2	138	139
2	140	141
2	141	142
2	142	143
2	144	145
2	145	146
2	146	147
2	148	149
2	149	150
2	150	151
2	152	153
2	153	154
2	154	155
2	156	157
2	157	158
2	158	159
2	160	161
2	161	162
2	162	163
2	164	165
2	165	166
2	166	167
2	168	169
2	169	170
2	170	171
2	172	173
2	173	174
2	174	175
2	176	177
2	177	178
2	178	179
2	180	181
2	181	182
2	182	183
2	184	185
2	185	186
2	186	187
2	188	189
2	189	190
2	190	191
2	192	193
2	193	194
2	194	195
2	196	197
2	197	198
2	198	199
2	200	201
2	201	202
2	202	203
2	204	205
2	205	206
2	206	207
2	208	209
2	209	210
2	210	211
2	212	213
2	213	214
2	214	215
2	216	217
2	217	218
2	218	219
2	220	221
2	221	222
2	222	223
2	224	225
2	225	226
2	226	227
2	228	229
2	229	230
2	230	231
2	232	233
2	233	234
2	234	235
2	236	237
2	237	238
2	238	239
2	240	241
2	241	242
2	242	243
2	244	245
2	245	246
2	246	247
2	248	249
2	249	250
2	250	251
2	252	253
2	253	254
2	254	255

CELL_TYPES 192
 3 3 3 3 3 3 3 3 3 3 3 3 3 3 3 3 3 3 3 3 3 3 3 3 3 3 3 3 3 3 3 3 3 3 3 3 3 3 3 3 3 3 3 3 3 3 3 3 3 3 3 3 3 3 3 3 3 3 3 3 3 3 3 3 3 3 3 3 3 3 3 3 3 3 3 3 3 3 3 3 3 3 3 3 3 3 3 3 3 3 3 3 3 3 3 3 3 3 3 3 3 3 3 3 3 3 3 3 3 3 3 3 3 3 3 3 3 3 3 3 3 3 3 3 3 3 3 3 3 3 3 3 3 3 3 3 3 3 3 3 3 3 3 3 3 3 3 3 3 3 3 3 3 3 3 3 3 3 3 3 3 3 3 3 3 3 3 3 3 3 3 3 3 3 3 3 3 3 3 3 3 3 3 3 3 3 3 3 3 3 3 3
POINT_DATA 256
SCALARS u_hat double 1
LOOKUP_TABLE default
-0.229505 -0.238589 -0.263647 -0.235709 -0.238886 0.153022 1.66521 4.20186 -0.226604 -0.192751 -0.19287 -0.15368 -0.338268 0.108761 1.62645 4.22157 -0.238886 0.153022 1.66521 4.20186 -0.16817 -0.150291 -0.16262 -0.121056 -0.154651 -0.174431 -0.158182 -0.164255 4.20403 1.67511 0.171632 -0.215964 -0.234128 -0.257353 -0.22116 -0.209015 4.22401 1.64249 0.15299 -0.257689 -0.338268 0.108761 1.62645 4.22157 -0.210502 -0.189841 -0.195659 -0.145809 4.22401 1.64249 0.15299 -0.257689 -0.121072 -0.154812 -0.133994 -0.140915 4.20403 1.67511 0.171632 -0.215964 -0.145822 -0.170795 -0.141586 -0.140916 -0.16817 -0.150291 -0.16262 -0.121056 -0.188405 0.245636 1.75112 4.33511 -0.166697 -0.142772 -0.142791 -0.0843679 -0.232901 0.209655 1.72886 4.3376 -0.188405 0.245636 1.75112 4.33511 0.000383824 0.000485037 0.00384581 0.00839747 -0.0860087 -0.0818183 -0.0316088 -0.0111008 4.31527 1.80324 0.312411 -0.0628985 -0.121072 -0.154812 -0.133994 -0.140915 4.31509 1.77985 0.266269 -0.130067 -0.232901 0.209655 1.72886 4.3376 -0.134406 -0.105584 -0.0913445 -0.0500841 4.31509 1.77985 0.266269 -0.130067 0.00839747 0.00384581 0.000485037 0.000383824 4.31527 1.80324 0.312411 -0.0628985 -0.051237 -0.0478275 -0.0208446 -0.005643 -0.206574 -0.16483 -0.145496 -0.0890929 -0.240682 0.18122 1.72201 4.29234 -0.210502 -0.189841 -0.195659 -0.145809 -0.173309 0.225496 1.74586 4.2902 -0.240682 0.18122 1.72201 4.29234 -0.134399 -0.112211 -0.103359 -0.065382 -0.145822 -0.170795 -0.141586 -0.140916 4.30971 1.73758 0.24959 -0.162072 -0.0880444 -0.0872797 -0.0393706 -0.00983793 4.30969 1.7622 0.300659 -0.0795074 -0.173309 0.225496 1.74586 4.2902 0.000383824 0.000485037 0.00384581 0.00839747 4.30969 1.7622 0.300659 -0.0795074 -0.0645112 -0.0623948 -0.0272116 -0.00751468 4.30971 1.73758 0.24959 -0.162072 0.00839747 0.00384581 0.000485037 0.000383824 -0.134399 -0.112211 -0.103359 -0.065382 -0.0655547 -0.0578574 -0.0497888 -0.0353848 -0.134406 -0.105584 -0.0913445 -0.0500841 -0.0805669 -0.065931 -0.0526776 -0.0354961 -0.0655547 -0.0578574 -0.0497888 -0.0353848 9.12388e-06 9.10452e-08 -1.18358e-08 -6.39658e-07 -0.051237 -0.0478275 -0.0208446 -0.005643 -0.0380286 -0.0250407 -0.012581 -4.75799e-05 -0.0645112 -0.0623948 -0.0272116 -0.00751468 -0.0379769 -0.0259354 -0.0129843 -3.6863e-05 -0.0805669 -0.065931 -0.0526776 -0.0354961 9.12388e-06 9.10452e-08 -1.18358e-08 -6.39658e-07 -0.0379769 -0.0259354 -0.0129843 -3.6863e-05 2.78436e-14 -7.64082e-17 -3.98399e-17 -2.07268e-15 -0.0380286 -0.0250407 -0.012581 -4.75799e-05 2.78436e-14 -7.64082e-17 -3.98399e-17 -2.07268e-15 
