# vtk DataFile Version 3.0
#This file was generated by the deal.II library on 2020/8/22 at 21:54:03
ASCII
DATASET UNSTRUCTURED_GRID

POINTS 1024 double
-1 -1 0
-0.916667 -1 0
-0.833333 -1 0
-0.75 -1 0
-1 -0.916667 0
-0.916667 -0.916667 0
-0.833333 -0.916667 0
-0.75 -0.916667 0
-1 -0.833333 0
-0.916667 -0.833333 0
-0.833333 -0.833333 0
-0.75 -0.833333 0
-1 -0.75 0
-0.916667 -0.75 0
-0.833333 -0.75 0
-0.75 -0.75 0
-0.75 -1 0
-0.666667 -1 0
-0.583333 -1 0
-0.5 -1 0
-0.75 -0.916667 0
-0.666667 -0.916667 0
-0.583333 -0.916667 0
-0.5 -0.916667 0
-0.75 -0.833333 0
-0.666667 -0.833333 0
-0.583333 -0.833333 0
-0.5 -0.833333 0
-0.75 -0.75 0
-0.666667 -0.75 0
-0.583333 -0.75 0
-0.5 -0.75 0
-1 -0.75 0
-0.916667 -0.75 0
-0.833333 -0.75 0
-0.75 -0.75 0
-1 -0.666667 0
-0.916667 -0.666667 0
-0.833333 -0.666667 0
-0.75 -0.666667 0
-1 -0.583333 0
-0.916667 -0.583333 0
-0.833333 -0.583333 0
-0.75 -0.583333 0
-1 -0.5 0
-0.916667 -0.5 0
-0.833333 -0.5 0
-0.75 -0.5 0
-0.75 -0.75 0
-0.666667 -0.75 0
-0.583333 -0.75 0
-0.5 -0.75 0
-0.75 -0.666667 0
-0.666667 -0.666667 0
-0.583333 -0.666667 0
-0.5 -0.666667 0
-0.75 -0.583333 0
-0.666667 -0.583333 0
-0.583333 -0.583333 0
-0.5 -0.583333 0
-0.75 -0.5 0
-0.666667 -0.5 0
-0.583333 -0.5 0
-0.5 -0.5 0
-0.5 -1 0
-0.416667 -1 0
-0.333333 -1 0
-0.25 -1 0
-0.5 -0.916667 0
-0.416667 -0.916667 0
-0.333333 -0.916667 0
-0.25 -0.916667 0
-0.5 -0.833333 0
-0.416667 -0.833333 0
-0.333333 -0.833333 0
-0.25 -0.833333 0
-0.5 -0.75 0
-0.416667 -0.75 0
-0.333333 -0.75 0
-0.25 -0.75 0
-0.25 -1 0
-0.166667 -1 0
-0.0833333 -1 0
0 -1 0
-0.25 -0.916667 0
-0.166667 -0.916667 0
-0.0833333 -0.916667 0
0 -0.916667 0
-0.25 -0.833333 0
-0.166667 -0.833333 0
-0.0833333 -0.833333 0
0 -0.833333 0
-0.25 -0.75 0
-0.166667 -0.75 0
-0.0833333 -0.75 0
0 -0.75 0
-0.5 -0.75 0
-0.416667 -0.75 0
-0.333333 -0.75 0
-0.25 -0.75 0
-0.5 -0.666667 0
-0.416667 -0.666667 0
-0.333333 -0.666667 0
-0.25 -0.666667 0
-0.5 -0.583333 0
-0.416667 -0.583333 0
-0.333333 -0.583333 0
-0.25 -0.583333 0
-0.5 -0.5 0
-0.416667 -0.5 0
-0.333333 -0.5 0
-0.25 -0.5 0
-0.25 -0.75 0
-0.166667 -0.75 0
-0.0833333 -0.75 0
0 -0.75 0
-0.25 -0.666667 0
-0.166667 -0.666667 0
-0.0833333 -0.666667 0
0 -0.666667 0
-0.25 -0.583333 0
-0.166667 -0.583333 0
-0.0833333 -0.583333 0
0 -0.583333 0
-0.25 -0.5 0
-0.166667 -0.5 0
-0.0833333 -0.5 0
0 -0.5 0
-1 -0.5 0
-0.916667 -0.5 0
-0.833333 -0.5 0
-0.75 -0.5 0
-1 -0.416667 0
-0.916667 -0.416667 0
-0.833333 -0.416667 0
-0.75 -0.416667 0
-1 -0.333333 0
-0.916667 -0.333333 0
-0.833333 -0.333333 0
-0.75 -0.333333 0
-1 -0.25 0
-0.916667 -0.25 0
-0.833333 -0.25 0
-0.75 -0.25 0
-0.75 -0.5 0
-0.666667 -0.5 0
-0.583333 -0.5 0
-0.5 -0.5 0
-0.75 -0.416667 0
-0.666667 -0.416667 0
-0.583333 -0.416667 0
-0.5 -0.416667 0
-0.75 -0.333333 0
-0.666667 -0.333333 0
-0.583333 -0.333333 0
-0.5 -0.333333 0
-0.75 -0.25 0
-0.666667 -0.25 0
-0.583333 -0.25 0
-0.5 -0.25 0
-1 -0.25 0
-0.916667 -0.25 0
-0.833333 -0.25 0
-0.75 -0.25 0
-1 -0.166667 0
-0.916667 -0.166667 0
-0.833333 -0.166667 0
-0.75 -0.166667 0
-1 -0.0833333 0
-0.916667 -0.0833333 0
-0.833333 -0.0833333 0
-0.75 -0.0833333 0
-1 0 0
-0.916667 0 0
-0.833333 0 0
-0.75 0 0
-0.75 -0.25 0
-0.666667 -0.25 0
-0.583333 -0.25 0
-0.5 -0.25 0
-0.75 -0.166667 0
-0.666667 -0.166667 0
-0.583333 -0.166667 0
-0.5 -0.166667 0
-0.75 -0.0833333 0
-0.666667 -0.0833333 0
-0.583333 -0.0833333 0
-0.5 -0.0833333 0
-0.75 0 0
-0.666667 0 0
-0.583333 0 0
-0.5 0 0
-0.5 -0.5 0
-0.416667 -0.5 0
-0.333333 -0.5 0
-0.25 -0.5 0
-0.5 -0.416667 0
-0.416667 -0.416667 0
-0.333333 -0.416667 0
-0.25 -0.416667 0
-0.5 -0.333333 0
-0.416667 -0.333333 0
-0.333333 -0.333333 0
-0.25 -0.333333 0
-0.5 -0.25 0
-0.416667 -0.25 0
-0.333333 -0.25 0
-0.25 -0.25 0
-0.25 -0.5 0
-0.166667 -0.5 0
-0.0833333 -0.5 0
0 -0.5 0
-0.25 -0.416667 0
-0.166667 -0.416667 0
-0.0833333 -0.416667 0
0 -0.416667 0
-0.25 -0.333333 0
-0.166667 -0.333333 0
-0.0833333 -0.333333 0
0 -0.333333 0
-0.25 -0.25 0
-0.166667 -0.25 0
-0.0833333 -0.25 0
0 -0.25 0
-0.5 -0.25 0
-0.416667 -0.25 0
-0.333333 -0.25 0
-0.25 -0.25 0
-0.5 -0.166667 0
-0.416667 -0.166667 0
-0.333333 -0.166667 0
-0.25 -0.166667 0
-0.5 -0.0833333 0
-0.416667 -0.0833333 0
-0.333333 -0.0833333 0
-0.25 -0.0833333 0
-0.5 0 0
-0.416667 0 0
-0.333333 0 0
-0.25 0 0
-0.25 -0.25 0
-0.166667 -0.25 0
-0.0833333 -0.25 0
0 -0.25 0
-0.25 -0.166667 0
-0.166667 -0.166667 0
-0.0833333 -0.166667 0
0 -0.166667 0
-0.25 -0.0833333 0
-0.166667 -0.0833333 0
-0.0833333 -0.0833333 0
0 -0.0833333 0
-0.25 0 0
-0.166667 0 0
-0.0833333 0 0
0 0 0
0 -1 0
0.0833333 -1 0
0.166667 -1 0
0.25 -1 0
0 -0.916667 0
0.0833333 -0.916667 0
0.166667 -0.916667 0
0.25 -0.916667 0
0 -0.833333 0
0.0833333 -0.833333 0
0.166667 -0.833333 0
0.25 -0.833333 0
0 -0.75 0
0.0833333 -0.75 0
0.166667 -0.75 0
0.25 -0.75 0
0.25 -1 0
0.333333 -1 0
0.416667 -1 0
0.5 -1 0
0.25 -0.916667 0
0.333333 -0.916667 0
0.416667 -0.916667 0
0.5 -0.916667 0
0.25 -0.833333 0
0.333333 -0.833333 0
0.416667 -0.833333 0
0.5 -0.833333 0
0.25 -0.75 0
0.333333 -0.75 0
0.416667 -0.75 0
0.5 -0.75 0
0 -0.75 0
0.0833333 -0.75 0
0.166667 -0.75 0
0.25 -0.75 0
0 -0.666667 0
0.0833333 -0.666667 0
0.166667 -0.666667 0
0.25 -0.666667 0
0 -0.583333 0
0.0833333 -0.583333 0
0.166667 -0.583333 0
0.25 -0.583333 0
0 -0.5 0
0.0833333 -0.5 0
0.166667 -0.5 0
0.25 -0.5 0
0.25 -0.75 0
0.333333 -0.75 0
0.416667 -0.75 0
0.5 -0.75 0
0.25 -0.666667 0
0.333333 -0.666667 0
0.416667 -0.666667 0
0.5 -0.666667 0
0.25 -0.583333 0
0.333333 -0.583333 0
0.416667 -0.583333 0
0.5 -0.583333 0
0.25 -0.5 0
0.333333 -0.5 0
0.416667 -0.5 0
0.5 -0.5 0
0.5 -1 0
0.583333 -1 0
0.666667 -1 0
0.75 -1 0
0.5 -0.916667 0
0.583333 -0.916667 0
0.666667 -0.916667 0
0.75 -0.916667 0
0.5 -0.833333 0
0.583333 -0.833333 0
0.666667 -0.833333 0
0.75 -0.833333 0
0.5 -0.75 0
0.583333 -0.75 0
0.666667 -0.75 0
0.75 -0.75 0
0.75 -1 0
0.833333 -1 0
0.916667 -1 0
1 -1 0
0.75 -0.916667 0
0.833333 -0.916667 0
0.916667 -0.916667 0
1 -0.916667 0
0.75 -0.833333 0
0.833333 -0.833333 0
0.916667 -0.833333 0
1 -0.833333 0
0.75 -0.75 0
0.833333 -0.75 0
0.916667 -0.75 0
1 -0.75 0
0.5 -0.75 0
0.583333 -0.75 0
0.666667 -0.75 0
0.75 -0.75 0
0.5 -0.666667 0
0.583333 -0.666667 0
0.666667 -0.666667 0
0.75 -0.666667 0
0.5 -0.583333 0
0.583333 -0.583333 0
0.666667 -0.583333 0
0.75 -0.583333 0
0.5 -0.5 0
0.583333 -0.5 0
0.666667 -0.5 0
0.75 -0.5 0
0.75 -0.75 0
0.833333 -0.75 0
0.916667 -0.75 0
1 -0.75 0
0.75 -0.666667 0
0.833333 -0.666667 0
0.916667 -0.666667 0
1 -0.666667 0
0.75 -0.583333 0
0.833333 -0.583333 0
0.916667 -0.583333 0
1 -0.583333 0
0.75 -0.5 0
0.833333 -0.5 0
0.916667 -0.5 0
1 -0.5 0
0 -0.5 0
0.0833333 -0.5 0
0.166667 -0.5 0
0.25 -0.5 0
0 -0.416667 0
0.0833333 -0.416667 0
0.166667 -0.416667 0
0.25 -0.416667 0
0 -0.333333 0
0.0833333 -0.333333 0
0.166667 -0.333333 0
0.25 -0.333333 0
0 -0.25 0
0.0833333 -0.25 0
0.166667 -0.25 0
0.25 -0.25 0
0.25 -0.5 0
0.333333 -0.5 0
0.416667 -0.5 0
0.5 -0.5 0
0.25 -0.416667 0
0.333333 -0.416667 0
0.416667 -0.416667 0
0.5 -0.416667 0
0.25 -0.333333 0
0.333333 -0.333333 0
0.416667 -0.333333 0
0.5 -0.333333 0
0.25 -0.25 0
0.333333 -0.25 0
0.416667 -0.25 0
0.5 -0.25 0
0 -0.25 0
0.0833333 -0.25 0
0.166667 -0.25 0
0.25 -0.25 0
0 -0.166667 0
0.0833333 -0.166667 0
0.166667 -0.166667 0
0.25 -0.166667 0
0 -0.0833333 0
0.0833333 -0.0833333 0
0.166667 -0.0833333 0
0.25 -0.0833333 0
0 0 0
0.0833333 0 0
0.166667 0 0
0.25 0 0
0.25 -0.25 0
0.333333 -0.25 0
0.416667 -0.25 0
0.5 -0.25 0
0.25 -0.166667 0
0.333333 -0.166667 0
0.416667 -0.166667 0
0.5 -0.166667 0
0.25 -0.0833333 0
0.333333 -0.0833333 0
0.416667 -0.0833333 0
0.5 -0.0833333 0
0.25 0 0
0.333333 0 0
0.416667 0 0
0.5 0 0
0.5 -0.5 0
0.583333 -0.5 0
0.666667 -0.5 0
0.75 -0.5 0
0.5 -0.416667 0
0.583333 -0.416667 0
0.666667 -0.416667 0
0.75 -0.416667 0
0.5 -0.333333 0
0.583333 -0.333333 0
0.666667 -0.333333 0
0.75 -0.333333 0
0.5 -0.25 0
0.583333 -0.25 0
0.666667 -0.25 0
0.75 -0.25 0
0.75 -0.5 0
0.833333 -0.5 0
0.916667 -0.5 0
1 -0.5 0
0.75 -0.416667 0
0.833333 -0.416667 0
0.916667 -0.416667 0
1 -0.416667 0
0.75 -0.333333 0
0.833333 -0.333333 0
0.916667 -0.333333 0
1 -0.333333 0
0.75 -0.25 0
0.833333 -0.25 0
0.916667 -0.25 0
1 -0.25 0
0.5 -0.25 0
0.583333 -0.25 0
0.666667 -0.25 0
0.75 -0.25 0
0.5 -0.166667 0
0.583333 -0.166667 0
0.666667 -0.166667 0
0.75 -0.166667 0
0.5 -0.0833333 0
0.583333 -0.0833333 0
0.666667 -0.0833333 0
0.75 -0.0833333 0
0.5 0 0
0.583333 0 0
0.666667 0 0
0.75 0 0
0.75 -0.25 0
0.833333 -0.25 0
0.916667 -0.25 0
1 -0.25 0
0.75 -0.166667 0
0.833333 -0.166667 0
0.916667 -0.166667 0
1 -0.166667 0
0.75 -0.0833333 0
0.833333 -0.0833333 0
0.916667 -0.0833333 0
1 -0.0833333 0
0.75 0 0
0.833333 0 0
0.916667 0 0
1 0 0
-1 0 0
-0.916667 0 0
-0.833333 0 0
-0.75 0 0
-1 0.0833333 0
-0.916667 0.0833333 0
-0.833333 0.0833333 0
-0.75 0.0833333 0
-1 0.166667 0
-0.916667 0.166667 0
-0.833333 0.166667 0
-0.75 0.166667 0
-1 0.25 0
-0.916667 0.25 0
-0.833333 0.25 0
-0.75 0.25 0
-0.75 0 0
-0.666667 0 0
-0.583333 0 0
-0.5 0 0
-0.75 0.0833333 0
-0.666667 0.0833333 0
-0.583333 0.0833333 0
-0.5 0.0833333 0
-0.75 0.166667 0
-0.666667 0.166667 0
-0.583333 0.166667 0
-0.5 0.166667 0
-0.75 0.25 0
-0.666667 0.25 0
-0.583333 0.25 0
-0.5 0.25 0
-1 0.25 0
-0.916667 0.25 0
-0.833333 0.25 0
-0.75 0.25 0
-1 0.333333 0
-0.916667 0.333333 0
-0.833333 0.333333 0
-0.75 0.333333 0
-1 0.416667 0
-0.916667 0.416667 0
-0.833333 0.416667 0
-0.75 0.416667 0
-1 0.5 0
-0.916667 0.5 0
-0.833333 0.5 0
-0.75 0.5 0
-0.75 0.25 0
-0.666667 0.25 0
-0.583333 0.25 0
-0.5 0.25 0
-0.75 0.333333 0
-0.666667 0.333333 0
-0.583333 0.333333 0
-0.5 0.333333 0
-0.75 0.416667 0
-0.666667 0.416667 0
-0.583333 0.416667 0
-0.5 0.416667 0
-0.75 0.5 0
-0.666667 0.5 0
-0.583333 0.5 0
-0.5 0.5 0
-0.5 0 0
-0.416667 0 0
-0.333333 0 0
-0.25 0 0
-0.5 0.0833333 0
-0.416667 0.0833333 0
-0.333333 0.0833333 0
-0.25 0.0833333 0
-0.5 0.166667 0
-0.416667 0.166667 0
-0.333333 0.166667 0
-0.25 0.166667 0
-0.5 0.25 0
-0.416667 0.25 0
-0.333333 0.25 0
-0.25 0.25 0
-0.25 0 0
-0.166667 0 0
-0.0833333 0 0
0 0 0
-0.25 0.0833333 0
-0.166667 0.0833333 0
[...]
POINT_DATA 1024
VECTORS gradient double
0.00144491 -0.0034872 0
0.00816601 -0.00841598 0
0.0184388 -0.0244667 0
0.0327976 -0.0713937 0
-0.003174 0.00444189 0
-0.0141205 -0.0170518 0
-0.0601218 -0.0630698 0
-0.151428 -0.225895 0
-0.019612 0.015186 0
-0.0597535 -0.0616789 0
-0.249561 -0.25239 0
-0.639212 -0.891763 0
-0.0656826 0.0294367 0
-0.224017 -0.152775 0
-0.891233 -0.642988 0
-2.24074 -2.24283 0
0.0401081 -0.075783 0
0.0404419 -0.15557 0
0.0307366 -0.256605 0
0.00806796 -0.29579 0
-0.127446 -0.267917 0
-0.239336 -0.50563 0
-0.197462 -0.90073 0
0.020599 -1.00479 0
-0.568274 -1.02123 0
-1.02036 -2.03197 0
-0.848942 -3.55561 0
0.0590568 -4.03504 0
-2.04832 -2.52029 0
-3.54381 -5.15134 0
-2.94129 -8.92802 0
0.154417 -10.221 0
-0.0684028 0.0387332 0
-0.267986 -0.126356 0
-1.02465 -0.567302 0
-2.52274 -2.04201 0
-0.151024 0.0381026 0
-0.502141 -0.240679 0
-2.02733 -1.02305 0
-5.14362 -3.54555 0
-0.25037 0.0297613 0
-0.900115 -0.200339 0
-3.55621 -0.852039 0
-8.92659 -2.94691 0
-0.293583 0.0120007 0
-1.00076 0.0206964 0
-4.02811 0.063373 0
-10.2118 0.15761 0
-2.31815 -2.30757 0
-3.94436 -4.75614 0
-3.26055 -8.30923 0
0.155298 -9.53003 0
-4.75942 -3.94507 0
-8.18429 -8.18842 0
-6.81329 -14.1315 0
0.306818 -16.2604 0
-8.31788 -3.27098 0
-14.1291 -6.8151 0
-11.7407 -11.7472 0
0.474302 -13.5353 0
-9.52569 0.149087 0
-16.2551 0.320578 0
-13.5382 0.475426 0
0.545615 0.559343 0
-0.00548645 -0.296096 0
-0.027995 -0.254101 0
-0.0395336 -0.152558 0
-0.0400375 -0.0725121 0
-0.0202394 -1.004 0
0.199339 -0.901192 0
0.240461 -0.505014 0
0.128399 -0.26842 0
-0.0582686 -4.03321 0
0.85224 -3.55618 0
1.02172 -2.03034 0
0.568608 -1.02285 0
-0.156561 -10.2182 0
2.94442 -8.9275 0
3.54519 -5.1474 0
2.04806 -2.52151 0
-0.0320869 -0.0684115 0
-0.0177421 -0.0222421 0
-0.00639723 -0.00621621 0
0.0018894 -0.00160097 0
0.153566 -0.22642 0
0.0617872 -0.061573 0
0.0160494 -0.0162959 0
0.00439772 0.00531409 0
0.64215 -0.893781 0
0.25095 -0.250438 0
0.0606186 -0.0627381 0
0.0124537 0.0117676 0
2.24613 -2.24553 0
0.892794 -0.639806 0
0.221579 -0.156202 0
0.0326215 0.017012 0
-0.174351 -9.5268 0
3.25309 -8.3191 0
3.94543 -4.76495 0
2.32381 -2.31723 0
-0.303185 -16.2581 0
6.82111 -14.1306 0
8.1868 -8.18465 0
4.75599 -3.94511 0
-0.482462 -13.5352 0
11.7408 -11.7455 0
14.1318 -6.81259 0
8.31754 -3.26794 0
-0.528844 0.556791 0
13.5527 0.46931 0
16.2595 0.309782 0
9.51839 0.146404 0
2.53433 -2.05338 0
1.03186 -0.567568 0
0.267599 -0.130176 0
0.0338707 0.0275216 0
5.14913 -3.54873 0
2.02622 -1.01948 0
0.492418 -0.245891 0
0.0662956 0.0157705 0
8.93807 -2.94754 0
3.55831 -0.848871 0
0.884012 -0.203719 0
0.103724 0.0103236 0
10.2152 0.152668 0
4.02208 0.0605743 0
0.978099 0.0212041 0
0.118317 0.0119491 0
-0.293323 -0.00389664 0
-1.00153 -0.0228344 0
-4.02999 -0.05895 0
-10.2145 -0.161692 0
-0.251086 -0.0252137 0
-0.90019 0.197848 0
-3.55539 0.852521 0
-8.92635 2.94009 0
-0.152119 -0.0368366 0
-0.503407 0.241149 0
-2.02867 1.02363 0
-5.14703 3.54542 0
-0.0710864 -0.0399321 0
-0.267857 0.128485 0
-1.02277 0.567709 0
-2.52158 2.04685 0
-9.52826 -0.188553 0
-16.2575 -0.299246 0
-13.5382 -0.48843 0
0.548581 -0.515278 0
-8.31659 3.24156 0
-14.1274 6.82397 0
-11.7413 11.734 0
0.475331 13.5606 0
-4.75941 3.9436 0
-8.18514 8.18917 0
-6.81453 14.1295 0
0.313172 16.2607 0
-2.3122 2.32506 0
-3.94285 4.75364 0
-3.26313 8.31931 0
0.157154 9.51875 0
-0.0679943 -0.031273 0
-0.225094 0.154291 0
-0.892285 0.64223 0
-2.24463 2.24602 0
-0.0221128 -0.0171725 0
-0.060752 0.0630867 0
-0.249727 0.251446 0
-0.639875 0.894271 0
-0.00609472 -0.00581048 0
-0.0156808 0.0173205 0
-0.0619094 0.061035 0
-0.15541 0.222873 0
-0.00165343 0.00263083 0
0.00536796 0.00565275 0
0.0117344 0.0128342 0
0.0167278 0.0333879 0
-2.04713 2.53652 0
-3.54777 5.14704 0
-2.94694 8.93785 0
0.158198 10.211 0
-0.564123 1.03661 0
-1.02001 2.02477 0
-0.849349 3.56044 0
0.0643927 4.01796 0
-0.127822 0.271678 0
-0.245212 0.491289 0
-0.203217 0.88638 0
0.0232063 0.975295 0
0.0272857 0.0369521 0
0.0153596 0.0643887 0
0.0102265 0.10411 0
0.0126246 0.114089 0
-0.526069 -0.51834 0
13.5565 -0.482612 0
16.262 -0.295738 0
9.51865 -0.182271 0
-0.483191 13.5569 0
11.7387 11.7353 0
14.1305 6.82159 0
8.31962 3.24524 0
-0.301973 16.2583 0
6.82282 14.1284 0
8.18846 8.18484 0
4.75802 3.94353 0
-0.179593 9.51778 0
3.24944 8.32594 0
3.94436 4.76058 0
2.3232 2.32969 0
10.2158 -0.157447 0
4.02177 -0.0587786 0
0.977575 -0.0228915 0
0.117926 -0.00649364 0
8.93762 2.94479 0
3.55853 0.850534 0
0.884645 0.203 0
0.102963 -0.00666028 0
5.1496 3.5483 0
2.02633 1.01983 0
0.492716 0.246194 0
0.0651437 -0.0150099 0
2.53451 2.05468 0
1.03279 0.566815 0
0.268744 0.131048 0
0.0342275 -0.0286334 0
-0.160253 10.2104 0
2.94601 8.9378 0
3.54975 5.14637 0
2.05103 2.53689 0
-0.060058 4.01826 0
0.852381 3.56001 0
1.02204 2.02436 0
0.565792 1.03559 0
-0.0230868 0.975772 0
0.203701 0.886323 0
0.246925 0.49163 0
0.130511 0.270891 0
-0.00587069 0.114619 0
-0.00538473 0.102674 0
-0.0135597 0.0631617 0
-0.0274178 0.0353158 0
2.25002 2.24951 0
0.895362 0.640427 0
0.22318 0.157686 0
0.0329613 -0.0181412 0
0.641722 0.895263 0
0.250701 0.249906 0
0.0607334 0.0638599 0
0.0127557 -0.0129212 0
0.158101 0.22315 0
0.0642631 0.0602071 0
0.017366 0.0169703 0
0.00549533 -0.00556273 0
-0.0169058 0.0322928 0
-0.0119911 0.0120381 0
-0.0048504 0.00501844 0
0.00280048 0.0021855 0
-0.000189112 -0.00165359 0
0.00826803 -0.00615195 0
0.0196391 -0.0222613 0
0.0337363 -0.0682684 0
-0.00325102 0.00517362 0
-0.0149334 -0.0159277 0
-0.0607207 -0.061078 0
-0.151957 -0.225524 0
-0.0104698 0.0113925 0
-0.0587089 -0.062297 0
-0.249163 -0.25018 0
-0.64 -0.892821 0
-0.0310568 0.0162785 0
-0.220598 -0.155898 0
-0.892054 -0.640415 0
-2.24387 -2.24523 0
0.0423951 -0.0713605 0
0.0392767 -0.152553 0
0.0276036 -0.251712 0
0.00620118 -0.294172 0
-0.126151 -0.268288 0
-0.238866 -0.503965 0
-0.19564 -0.900896 0
0.0249361 -1.0024 0
-0.565479 -1.02331 0
-1.02147 -2.0293 0
-0.850448 -3.55613 0
0.0609082 -4.03084 0
-2.0447 -2.52219 0
-3.54335 -5.14771 0
-2.9381 -8.9271 0
0.163562 -10.2153 0
-0.034621 0.0268363 0
-0.269402 -0.12831 0
-1.0344 -0.564663 0
-2.53437 -2.04773 0
-0.0620866 0.0148361 0
-0.489054 -0.245767 0
-2.0226 -1.0206 0
-5.14495 -3.54841 0
-0.101833 0.00965612 0
-0.884177 -0.203813 0
-3.55831 -0.849975 0
-8.93579 -2.9476 0
-0.111835 0.0120293 0
-0.973117 0.0225902 0
-4.01586 0.0637537 0
-10.209 0.15754 0
-2.32291 -2.3128 0
-3.94152 -4.76009 0
-3.23958 -8.31733 0
0.19043 -9.52908 0
-4.75155 -3.94349 0
-8.18716 -8.18583 0
-6.82205 -14.1281 0
0.301064 -16.2583 0
-8.31726 -3.26379 0
-14.1275 -6.81522 0
-11.7321 -11.7421 0
0.490232 -13.5389 0
-9.51673 0.156501 0
-16.2587 0.312491 0
-13.5587 0.47464 0
0.517052 0.547861 0
-0.00969637 -0.294431 0
-0.0275877 -0.251469 0
-0.0361191 -0.152391 0
-0.0370204 -0.0700482 0
-0.0185953 -1.00163 0
0.202296 -0.901165 0
0.242447 -0.503378 0
0.127891 -0.269418 0
-0.0614149 -4.02897 0
0.853847 -3.55717 0
1.02466 -2.0284 0
0.568646 -1.02583 0
-0.155741 -10.2126 0
2.94864 -8.92746 0
3.54711 -5.14453 0
2.0434 -2.52365 0
-0.0276928 -0.0673025 0
-0.0139438 -0.0215119 0
-0.00426447 -0.005106 0
0.000248492 7.43276e-05 0
0.1543 -0.225446 0
0.0629882 -0.0613986 0
0.0182996 -0.0160021 0
0.01041 0.00601492 0
0.644342 -0.892411 0
0.253347 -0.250853 0
0.0633826 -0.0615658 0
0.023288 0.0167614 0
2.24419 -2.24156 0
0.892964 -0.640073 0
0.227451 -0.152047 0
0.0753763 0.0330115 0
-0.147212 -9.52652 0
3.27274 -8.31876 0
3.94671 -4.76036 0
2.30922 -2.3192 0
-0.318758 -16.2559 0
6.8168 -14.1299 0
8.18996 -8.18505 0
4.75739 -3.94498 0
-0.473624 -13.5389 0
11.7489 -11.7414 0
14.1331 -6.814 0
8.31102 -3.26112 0
-0.557562 0.544891 0
13.5369 0.473568 0
16.262 0.306035 0
9.53141 0.154438 0
2.52173 -2.04949 0
1.02372 -0.56962 0
0.274552 -0.130675 0
0.101435 0.0309821 0
5.15267 -3.54441 0
2.03244 -1.02059 0
0.503536 -0.238476 0
0.144387 0.0438585 0
8.92973 -2.94185 0
3.558 -0.849134 0
0.90549 -0.196653 0
0.270295 0.0338082 0
10.2226 0.153361 0
4.0354 0.0578916 0
1.00067 0.0176203 0
0.271733 -0.000656922 0
-0.112363 -0.00646581 0
-0.973594 -0.0237035 0
-4.01616 -0.0606979 0
-10.2084 -0.160914 0
-0.10044 -0.00598894 0
-0.884166 0.203082 0
-3.55792 0.851743 0
-8.93578 2.94536 0
-0.0609448 -0.0141657 0
-0.489491 0.246318 0
-2.02229 1.02141 0
-5.14435 3.54914 0
-0.0331121 -0.0280389 0
-0.268774 0.129937 0
-1.03353 0.565164 0
-2.53485 2.0505 0
-9.51576 -0.180251 0
-16.2563 -0.302657 0
-13.555 -0.483889 0
0.520111 -0.526789 0
-8.32394 3.24882 0
-14.1264 6.82215 0
-11.7334 11.7381 0
0.484369 13.5558 0
-4.7586 3.94384 0
-8.18287 8.1878 0
-6.81972 14.1299 0
0.297437 16.2613 0
-2.32778 2.323 0
-3.9415 4.75732 0
-3.24332 8.31939 0
0.183879 9.51787 0
-0.0295523 -0.0175078 0
-0.220199 0.157254 0
-0.891324 0.64028 0
-2.24403 2.24748 0
-0.0100703 -0.0127152 0
-0.0585332 0.0638648 0
-0.248741 0.250249 0
-0.639859 0.895483 0
-0.00227503 -0.0060492 0
-0.0143715 0.0175234 0
-0.0602525 0.061348 0
-0.151844 0.227982 0
0.00096575 -0.000145671 0
0.00836379 0.00827196 0
0.019717 0.0220923 0
0.0346671 0.0718323 0
-2.04951 2.5322 0
-3.54192 5.14517 0
-2.93974 8.93173 0
0.158659 10.2087 0
-0.566681 1.03415 0
-1.01939 2.02625 0
-0.849665 3.56067 0
0.0601915 4.02218 0
-0.127255 0.278244 0
-0.237934 0.500768 0
-0.195973 0.90554 0
0.022687 0.99422 0
0.0386 0.0894769 0
0.0428536 0.14588 0
0.0309153 0.262246 0
0.00268979 0.279881 0
-0.555008 -0.529563 0
13.5369 -0.483188 0
16.2597 -0.3039 0
9.52816 -0.174976 0
-0.467538 13.552 0
11.7472 11.7402 0
14.1323 6.82032 0
8.32092 3.25221 0
-0.308006 16.2588 0
6.81419 14.1312 0
8.18612 8.18602 0
4.76628 3.94467 0
-0.14455 9.5176 0
3.26948 8.31729 0
3.94662 4.75527 0
2.31909 2.3237 0
10.2198 -0.156945 0
4.03353 -0.058579 0
0.999645 -0.0185121 0
0.270964 0.00265904 0
8.92922 2.94349 0
3.55863 0.850984 0
0.906143 0.1971 0
0.268556 -0.0326016 0
5.14877 3.54432 0
2.03093 1.02054 0
0.503005 0.238401 0
0.140988 -0.0438638 0
2.52299 2.04776 0
1.0257 0.568436 0
0.275879 0.130422 0
0.100543 -0.0317126 0
-0.150935 10.2082 0
2.94562 8.93218 0
3.54578 5.14467 0
2.0519 2.53203 0
-0.0583531 4.02244 0
0.851537 3.56043 0
1.02249 2.02607 0
0.570829 1.03327 0
-0.0177504 0.994627 0
0.199939 0.904965 0
0.241077 0.500403 0
0.130058 0.27724 0
-0.00413626 0.280027 0
-0.0309413 0.262962 0
-0.0401744 0.146727 0
-0.0340526 0.0892537 0
2.24369 2.24347 0
0.893641 0.640703 0
0.228033 0.15254 0
0.0737309 -0.033775 0
0.642611 0.892958 0
0.25257 0.250598 0
0.0628768 0.0617978 0
0.0217904 -0.017589 0
0.153923 0.226527 0
0.0629696 0.0612483 0
0.018048 0.0165543 0
0.00951351 -0.00696133 0
-0.0303425 0.0717225 0
-0.0153301 0.0214711 0
-0.00541886 0.00690251 0
-0.001993 -0.00258905 0
-0.00160083 0.000552557 0
0.00550844 -0.00199575 0
0.0121095 -0.0100891 0
0.0174612 -0.0302903 0
-0.00623921 0.00882302 0
-0.0161268 -0.0136329 0
-0.062421 -0.0582149 0
-0.155776 -0.21919 0
-0.0222546 0.0201578 0
-0.0614014 -0.0593499 0
-0.250124 -0.2485 0
-0.639387 -0.89034 0
-0.06838 0.0345044 0
-0.226217 -0.151096 0
-0.893447 -0.639641 0
-2.2451 -2.2436 0
0.027971 -0.0315395 0
0.0162939 -0.0639933 0
0.0108936 -0.101447 0
0.0125428 -0.116062 0
-0.12975 -0.26521 0
-0.245389 -0.490045 0
-0.20317 -0.881656 0
0.021778 -0.975762 0
-0.567148 -1.02941 0
-1.01899 -2.02376 0
-0.848336 -3.55586 0
0.0611284 -4.01965 0
-2.05295 -2.53179 0
-3.54824 -5.14658 0
-2.94701 -8.93552 0
0.153206 -10.2127 0
-0.0724807 0.0424553 0
-0.268217 -0.125928 0
-1.02251 -0.566099 0
-2.52108 -2.04553 0
-0.152449 0.0419726 0
-0.504751 -0.237938 0
-2.02997 -1.01913 0
-5.14694 -3.54256 0
-0.253879 0.030483 0
-0.90084 -0.196732 0
-3.55573 -0.849542 0
-8.927 -2.94166 0
-0.295724 0.00806012 0
-1.00353 0.0229674 0
-4.03267 0.0611148 0
-10.2176 0.159496 0
-2.3168 -2.32127 0
-3.94462 -4.75344 0
-3.26741 -8.315 0
0.146946 -9.51585 0
-4.7645 -3.9428 0
-8.18414 -8.18414 0
-6.81207 -14.1291 0
0.310299 -16.2569 0
-8.31859 -3.25032 0
-14.1301 -6.8183 0
-11.745 -11.738 0
0.469812 -13.5499 0
-9.52623 0.177293 0
-16.2575 0.306176 0
-13.5347 0.485486 0
0.557257 0.531845 0
-0.00589949 -0.11567 0
-0.00606229 -0.100729 0
-0.0144282 -0.062927 0
-0.0281024 -0.0320246 0
-0.0223178 -0.975238 0
0.20358 -0.88233 0
0.246769 -0.490426 0
0.131615 -0.266488 0
-0.0582251 -4.01934 0
0.851087 -3.55612 0
1.02036 -2.02395 0
0.567309 -1.03045 0
-0.156912 -10.2132 0
2.94532 -8.93511 0
3.54882 -5.14711 0
2.05522 -2.53204 0
-0.0175868 -0.0302217 0
-0.0125454 -0.0107907 0
-0.0057174 -0.00276074 0
0.000252496 0.000325704 0
0.157987 -0.220096 0
0.0645429 -0.058931 0
0.0181287 -0.0146586 0
0.00870763 0.00775603 0
0.640115 -0.891154 0
0.250518 -0.249284 0
0.0618156 -0.0604479 0
0.0223217 0.0189647 0
2.24806 -2.24412 0
0.896392 -0.640786 0
0.228854 -0.151957 0
0.0719532 0.0336523 0
-0.181733 -9.51612 0
3.24579 -8.31712 0
3.94412 -4.75556 0
2.33051 -2.32085 0
-0.295224 -16.2594 0
6.82208 -14.1278 0
8.18527 -8.18585 0
4.76091 -3.94176 0
-0.482116 -13.5537 0
11.7358 -11.7359 0
14.1289 -6.82008 0
8.32658 -3.24675 0
-0.517877 0.529067 0
13.5573 0.486139 0
16.2585 0.304793 0
9.51784 0.182228 0
2.53562 -2.04542 0
1.03782 -0.565229 0
0.280915 -0.126241 0
0.0904638 0.0380622 0
5.14298 -3.54277 0
2.02528 -1.02115 0
0.500696 -0.238353 0
0.145112 0.0414344 0
8.93277 -2.94015 0
3.56289 -0.850891 0
0.907676 -0.196186 0
0.262057 0.0298242 0
10.2041 0.162533 0
4.0195 0.0623783 0
0.993342 0.023781 0
0.277989 0.00300355 0
-0.295417 -0.00549365 0
-1.00432 -0.0178708 0
-4.0345 -0.05621 0
-10.2204 -0.151482 0
-0.256042 -0.0280259 0
-0.900107 0.200366 0
-3.55496 0.851987 0
-8.92736 2.94444 0
-0.154765 -0.0375271 0
-0.50483 0.242498 0
-2.03119 1.02367 0
-5.15059 3.54725 0
-0.0746738 -0.0369054 0
-0.266923 0.130986 0
-1.02034 0.571912 0
-2.51946 2.05212 0
-9.52947 -0.152358 0
-16.2598 -0.303824 0
-13.5347 -0.471278 0
0.559805 -0.542607 0
-8.30858 3.26372 0
-14.1308 6.81651 0
-11.7467 11.744 0
0.47585 13.5414 0
-4.75543 3.94788 0
-8.18771 8.18776 0
-6.81451 14.1327 0
0.32091 16.2586 0
-2.30687 2.32222 0
-3.9442 4.76309 0
-3.27029 8.32208 0
0.149263 9.5294 0
-0.0702472 -0.0295517 0
-0.224912 0.154952 0
-0.890871 0.642869 0
-2.24187 2.2445 0
-0.0229476 -0.0149344 0
-0.0618995 0.0642894 0
-0.251455 0.253568 0
-0.642101 0.895564 0
-0.00611203 -0.00470909 0
-0.0158293 0.0194786 0
-0.0608885 0.06402 0
-0.151697 0.229696 0
0.00046067 -0.000384157 0
0.00540628 0.0113243 0
0.0154553 0.0231063 0
0.031292 0.075826 0
-2.0415 2.52653 0
-3.54464 5.14741 0
-2.94619 8.93068 0
0.157494 10.2158 0
-0.566907 1.03042 0
-1.02185 2.03071 0
-0.851008 3.56162 0
0.063136 4.03117 0
-0.128303 0.279562 0
-0.238442 0.503139 0
-0.198217 0.908938 0
0.0180984 0.99916 0
0.0294095 0.104883 0
0.0429319 0.141279 0
0.0346521 0.271112 0
0.00200652 0.26822 0
-0.514811 -0.545572 0
13.561 -0.472373 0
16.2609 -0.310292 0
9.51883 -0.154324 0
-0.488 13.5414 0
11.7343 11.7445 0
14.1297 6.81751 0
8.31969 3.26594 0
-0.29885 16.261 0
6.82409 14.1309 0
8.18909 8.18829 0
4.75345 3.94584 0
-0.188149 9.53197 0
3.24143 8.32061 0
3.94327 4.76271 0
2.3251 2.3157 0
10.2048 -0.155444 0
4.01924 -0.0614174 0
0.992969 -0.0192879 0
0.27769 -0.00498889 0
8.93254 2.9463 0
3.56299 0.853136 0
0.907392 0.200472 0
0.262866 -0.0298271 0
5.14309 3.54629 0
2.02508 1.02431 0
0.499802 0.241505 0
0.145571 -0.038701 0
2.53434 2.04727 0
1.03784 0.568663 0
0.280626 0.128465 0
0.0906279 -0.0337303 0
-0.161027 10.2185 0
2.93991 8.93027 0
3.54499 5.15041 0
2.04682 2.52471 0
-0.0583416 4.03308 0
0.851803 3.56055 0
1.02258 2.03154 0
0.567391 1.02755 0
-0.0202613 1.00019 0
0.195806 0.908602 0
0.238618 0.503861 0
0.130032 0.27776 0
0.00512551 0.269217 0
-0.0301444 0.270787 0
-0.0427033 0.142251 0
-0.0319956 0.103792 0
2.24356 2.24444 0
0.894449 0.644071 0
0.227643 0.15421 0
0.0719457 -0.0291585 0
0.640638 0.893995 0
0.250819 0.253336 0
0.0613345 0.0632014 0
0.0214654 -0.0145576 0
0.152664 0.228704 0
0.0623424 0.0636157 0
0.0169771 0.0185157 0
0.00716028 -0.00477484 0
-0.0339636 0.0754833 0
-0.0182127 0.0232991 0
-0.00748628 0.0105271 0
-0.00285955 -0.00118129 0
-0.00202799 -0.00245219 0
7.30126e-06 0.00392412 0
-0.00352467 0.0105098 0
-0.0134616 0.0402969 0
0.00443021 -0.000370049 0
0.0017012 0.0012608 0
5.12211e-06 0.00235611 0
-0.00285502 0.0055242 0
0.0109202 -0.0038836 0
0.00276567 -0.000385593 0
0.00226205 0.00188633 0
0.00182813 -0.00028419 0
0.0408189 -0.0138148 0
0.00598958 -0.00319832 0
0.000118543 0.00149463 0
-0.00419177 -0.00453183 0
-0.00713722 0.0555739 0
-0.0242909 0.0824464 0
-0.0208006 0.159955 0
0.00655806 0.16403 0
-0.000634371 0.0104536 0
-0.00490991 0.00952571 0
-0.00379745 0.021865 0
0.00309074 0.0181543 0
0.00303219 0.00262986 0
0.00279217 0.0013404 0
0.0022786 0.00334486 0
0.00153926 0.00175323 0
-0.00188291 -0.000920055 0
-0.00324168 -0.0030109 0
-0.0020406 -0.00460751 0
0.00164064 -0.00580506 0
0.0569738 -0.00703107 0
0.0112867 -0.000805275 0
0.0031597 0.00275167 0
-0.000531341 -0.00221532 0
0.0824409 -0.0248524 0
0.0097848 -0.00529169 0
0.00165928 0.00245934 0
-0.00268939 -0.00352088 0
0.160943 -0.0212168 0
0.0225671 -0.00404509 0
0.00382046 0.00203879 0
-0.00420768 -0.00220153 0
0.16355 0.00690009 0
0.0182384 0.00322155 0
0.0019977 0.00151145 0
-0.00547306 0.00162121 0
0.00169332 0.00131586 0
0.00121649 0.0007565 0
0.00114606 0.00106691 0
0.00129575 0.000508077 0
0.00108047 0.000901898 0
0.00106979 0.00078958 0
0.00108267 0.000849934 0
0.00113055 0.000642645 0
0.00145743 0.000938384 0
0.00114482 0.000885597 0
0.00105398 0.000850711 0
0.00101341 0.000723243 0
0.000814306 0.00123396 0
0.000901468 0.0010379 0
0.000913543 0.000900349 0
0.000894376 0.000777585 0
-0.00394473 0.164262 0
0.0233422 0.159527 0
0.0271265 0.0820938 0
0.0102494 0.0547698 0
-0.000133179 0.0182583 0
0.0066076 0.0216935 0
0.00765518 0.00931331 0
0.00340708 0.00988734 0
0.000885193 0.00179633 0
0.000173498 0.00314814 0
-0.000237432 0.00101858 0
-0.000399324 0.00207196 0
0.00116906 -0.00578572 0
0.00469799 -0.00478483 0
0.00568606 -0.0033256 0
0.00425636 -0.0013939 0
0.0162757 0.0396951 0
0.00649912 0.00997824 0
0.00235936 0.00343565 0
0.00234479 -0.0022154 0
0.00523394 0.00570579 0
0.00294184 0.00137231 0
0.00188569 0.000794122 0
0.00195725 -0.000658046 0
-4.09368e-05 0.0010171 0
0.000514229 0.000332275 0
0.000953778 0.000261487 0
0.0011711 -0.000168262 0
0.00453164 -0.00156565 0
0.00292381 -0.000585525 0
0.00191915 -0.000131489 0
0.00172384 -2.81898e-05 0
0.00110356 0.000524769 0
0.00127295 0.000887851 0
0.00129662 0.000402048 0
0.00114614 0.00069174 0
0.00107652 0.000653441 0
0.00112743 0.000670521 0
0.00113079 0.000460795 0
0.00108062 0.000446655 0
0.00101036 0.000729139 0
0.000999482 0.000648012 0
0.000987115 0.00050196 0
0.000969728 0.000401378 0
0.000891288 0.000774663 0
0.000878495 0.000654198 0
0.000863708 0.000523815 0
0.000846613 0.000397457 0
0.00125479 0.00042067 0
0.00122261 0.000206932 0
0.00121851 0.000127769 0
0.00124969 -4.75599e-05 0
0.00111231 0.000378518 0
0.00110163 0.000233008 0
0.00110667 0.000122157 0
0.0011339 -1.08976e-05 0
0.000976 0.000384188 0
0.000973998 0.000250711 0
0.000984352 0.000126266 0
0.00101157 -2.83231e-06 0
0.000851239 0.000395621 0
0.000846722 0.000263684 0
0.000856543 0.000132139 0
0.000883495 -7.52017e-08 0
0.163306 -0.00471644 0
0.0181213 -0.000436297 0
0.00195669 0.000704013 0
-0.00548686 0.00110152 0
0.160746 0.023789 0
0.0224474 0.00685096 0
0.00362107 0.000282448 0
-0.00438563 0.00475823 0
0.0818329 0.0276646 0
0.00934573 0.00795755 0
0.0012036 -3.74972e-05 0
-0.00307327 0.00578827 0
0.0566585 0.00988564 0
0.0108202 0.00336798 0
0.00256493 -0.000285589 0
-0.00107471 0.00434603 0
0.000801736 0.000991158 0
0.000902312 0.000966591 0
0.000916451 0.000892084 0
0.00089091 0.00077249 0
0.00124438 0.00131987 0
0.000931877 0.00112373 0
0.000831523 0.000964082 0
0.000769406 0.000827994 0
0.000617722 0.00141628 0
0.000654851 0.00119392 0
0.000651421 0.00101216 0
0.000623018 0.000865413 0
0.000978302 0.00126266 0
0.000638966 0.00117087 0
0.000532305 0.00102953 0
0.000480346 0.000880417 0
0.0404126 0.0167247 0
0.00612386 0.00551377 0
0.00131992 0.000186137 0
-0.00131724 0.00465628 0
0.0101672 0.00688915 0
0.00154342 0.00323231 0
0.000510894 0.000762045 0
-0.0004257 0.00307467 0