# vtk DataFile Version 3.0
#This file was generated by the deal.II library on 2020/8/22 at 21:53:47
ASCII
DATASET UNSTRUCTURED_GRID

POINTS 4096 double
-1 -1 0
-0.9375 -1 0
-1 -0.9375 0
-0.9375 -0.9375 0
-0.9375 -1 0
-0.875 -1 0
-0.9375 -0.9375 0
-0.875 -0.9375 0
-1 -0.9375 0
-0.9375 -0.9375 0
-1 -0.875 0
-0.9375 -0.875 0
-0.9375 -0.9375 0
-0.875 -0.9375 0
-0.9375 -0.875 0
-0.875 -0.875 0
-0.875 -1 0
-0.8125 -1 0
-0.875 -0.9375 0
-0.8125 -0.9375 0
-0.8125 -1 0
-0.75 -1 0
-0.8125 -0.9375 0
-0.75 -0.9375 0
-0.875 -0.9375 0
-0.8125 -0.9375 0
-0.875 -0.875 0
-0.8125 -0.875 0
-0.8125 -0.9375 0
-0.75 -0.9375 0
-0.8125 -0.875 0
-0.75 -0.875 0
-1 -0.875 0
-0.9375 -0.875 0
-1 -0.8125 0
-0.9375 -0.8125 0
-0.9375 -0.875 0
-0.875 -0.875 0
-0.9375 -0.8125 0
-0.875 -0.8125 0
-1 -0.8125 0
-0.9375 -0.8125 0
-1 -0.75 0
-0.9375 -0.75 0
-0.9375 -0.8125 0
-0.875 -0.8125 0
-0.9375 -0.75 0
-0.875 -0.75 0
-0.875 -0.875 0
-0.8125 -0.875 0
-0.875 -0.8125 0
-0.8125 -0.8125 0
-0.8125 -0.875 0
-0.75 -0.875 0
-0.8125 -0.8125 0
-0.75 -0.8125 0
-0.875 -0.8125 0
-0.8125 -0.8125 0
-0.875 -0.75 0
-0.8125 -0.75 0
-0.8125 -0.8125 0
-0.75 -0.8125 0
-0.8125 -0.75 0
-0.75 -0.75 0
-0.75 -1 0
-0.6875 -1 0
-0.75 -0.9375 0
-0.6875 -0.9375 0
-0.6875 -1 0
-0.625 -1 0
-0.6875 -0.9375 0
-0.625 -0.9375 0
-0.75 -0.9375 0
-0.6875 -0.9375 0
-0.75 -0.875 0
-0.6875 -0.875 0
-0.6875 -0.9375 0
-0.625 -0.9375 0
-0.6875 -0.875 0
-0.625 -0.875 0
-0.625 -1 0
-0.5625 -1 0
-0.625 -0.9375 0
-0.5625 -0.9375 0
-0.5625 -1 0
-0.5 -1 0
-0.5625 -0.9375 0
-0.5 -0.9375 0
-0.625 -0.9375 0
-0.5625 -0.9375 0
-0.625 -0.875 0
-0.5625 -0.875 0
-0.5625 -0.9375 0
-0.5 -0.9375 0
-0.5625 -0.875 0
-0.5 -0.875 0
-0.75 -0.875 0
-0.6875 -0.875 0
-0.75 -0.8125 0
-0.6875 -0.8125 0
-0.6875 -0.875 0
-0.625 -0.875 0
-0.6875 -0.8125 0
-0.625 -0.8125 0
-0.75 -0.8125 0
-0.6875 -0.8125 0
-0.75 -0.75 0
-0.6875 -0.75 0
-0.6875 -0.8125 0
-0.625 -0.8125 0
-0.6875 -0.75 0
-0.625 -0.75 0
-0.625 -0.875 0
-0.5625 -0.875 0
-0.625 -0.8125 0
-0.5625 -0.8125 0
-0.5625 -0.875 0
-0.5 -0.875 0
-0.5625 -0.8125 0
-0.5 -0.8125 0
-0.625 -0.8125 0
-0.5625 -0.8125 0
-0.625 -0.75 0
-0.5625 -0.75 0
-0.5625 -0.8125 0
-0.5 -0.8125 0
-0.5625 -0.75 0
-0.5 -0.75 0
-1 -0.75 0
-0.9375 -0.75 0
-1 -0.6875 0
-0.9375 -0.6875 0
-0.9375 -0.75 0
-0.875 -0.75 0
-0.9375 -0.6875 0
-0.875 -0.6875 0
-1 -0.6875 0
-0.9375 -0.6875 0
-1 -0.625 0
-0.9375 -0.625 0
-0.9375 -0.6875 0
-0.875 -0.6875 0
-0.9375 -0.625 0
-0.875 -0.625 0
-0.875 -0.75 0
-0.8125 -0.75 0
-0.875 -0.6875 0
-0.8125 -0.6875 0
-0.8125 -0.75 0
-0.75 -0.75 0
-0.8125 -0.6875 0
-0.75 -0.6875 0
-0.875 -0.6875 0
-0.8125 -0.6875 0
-0.875 -0.625 0
-0.8125 -0.625 0
-0.8125 -0.6875 0
-0.75 -0.6875 0
-0.8125 -0.625 0
-0.75 -0.625 0
-1 -0.625 0
-0.9375 -0.625 0
-1 -0.5625 0
-0.9375 -0.5625 0
-0.9375 -0.625 0
-0.875 -0.625 0
-0.9375 -0.5625 0
-0.875 -0.5625 0
-1 -0.5625 0
-0.9375 -0.5625 0
-1 -0.5 0
-0.9375 -0.5 0
-0.9375 -0.5625 0
-0.875 -0.5625 0
-0.9375 -0.5 0
-0.875 -0.5 0
-0.875 -0.625 0
-0.8125 -0.625 0
-0.875 -0.5625 0
-0.8125 -0.5625 0
-0.8125 -0.625 0
-0.75 -0.625 0
-0.8125 -0.5625 0
-0.75 -0.5625 0
-0.875 -0.5625 0
-0.8125 -0.5625 0
-0.875 -0.5 0
-0.8125 -0.5 0
-0.8125 -0.5625 0
-0.75 -0.5625 0
-0.8125 -0.5 0
-0.75 -0.5 0
-0.75 -0.75 0
-0.6875 -0.75 0
-0.75 -0.6875 0
-0.6875 -0.6875 0
-0.6875 -0.75 0
-0.625 -0.75 0
-0.6875 -0.6875 0
-0.625 -0.6875 0
-0.75 -0.6875 0
-0.6875 -0.6875 0
-0.75 -0.625 0
-0.6875 -0.625 0
-0.6875 -0.6875 0
-0.625 -0.6875 0
-0.6875 -0.625 0
-0.625 -0.625 0
-0.625 -0.75 0
-0.5625 -0.75 0
-0.625 -0.6875 0
-0.5625 -0.6875 0
-0.5625 -0.75 0
-0.5 -0.75 0
-0.5625 -0.6875 0
-0.5 -0.6875 0
-0.625 -0.6875 0
-0.5625 -0.6875 0
-0.625 -0.625 0
-0.5625 -0.625 0
-0.5625 -0.6875 0
-0.5 -0.6875 0
-0.5625 -0.625 0
-0.5 -0.625 0
-0.75 -0.625 0
-0.6875 -0.625 0
-0.75 -0.5625 0
-0.6875 -0.5625 0
-0.6875 -0.625 0
-0.625 -0.625 0
-0.6875 -0.5625 0
-0.625 -0.5625 0
-0.75 -0.5625 0
-0.6875 -0.5625 0
-0.75 -0.5 0
-0.6875 -0.5 0
-0.6875 -0.5625 0
-0.625 -0.5625 0
-0.6875 -0.5 0
-0.625 -0.5 0
-0.625 -0.625 0
-0.5625 -0.625 0
-0.625 -0.5625 0
-0.5625 -0.5625 0
-0.5625 -0.625 0
-0.5 -0.625 0
-0.5625 -0.5625 0
-0.5 -0.5625 0
-0.625 -0.5625 0
-0.5625 -0.5625 0
-0.625 -0.5 0
-0.5625 -0.5 0
-0.5625 -0.5625 0
-0.5 -0.5625 0
-0.5625 -0.5 0
-0.5 -0.5 0
-0.5 -1 0
-0.4375 -1 0
-0.5 -0.9375 0
-0.4375 -0.9375 0
-0.4375 -1 0
-0.375 -1 0
-0.4375 -0.9375 0
-0.375 -0.9375 0
-0.5 -0.9375 0
-0.4375 -0.9375 0
-0.5 -0.875 0
-0.4375 -0.875 0
-0.4375 -0.9375 0
-0.375 -0.9375 0
-0.4375 -0.875 0
-0.375 -0.875 0
-0.375 -1 0
-0.3125 -1 0
-0.375 -0.9375 0
-0.3125 -0.9375 0
-0.3125 -1 0
-0.25 -1 0
-0.3125 -0.9375 0
-0.25 -0.9375 0
-0.375 -0.9375 0
-0.3125 -0.9375 0
-0.375 -0.875 0
-0.3125 -0.875 0
-0.3125 -0.9375 0
-0.25 -0.9375 0
-0.3125 -0.875 0
-0.25 -0.875 0
-0.5 -0.875 0
-0.4375 -0.875 0
-0.5 -0.8125 0
-0.4375 -0.8125 0
-0.4375 -0.875 0
-0.375 -0.875 0
-0.4375 -0.8125 0
-0.375 -0.8125 0
-0.5 -0.8125 0
-0.4375 -0.8125 0
-0.5 -0.75 0
-0.4375 -0.75 0
-0.4375 -0.8125 0
-0.375 -0.8125 0
-0.4375 -0.75 0
-0.375 -0.75 0
-0.375 -0.875 0
-0.3125 -0.875 0
-0.375 -0.8125 0
-0.3125 -0.8125 0
-0.3125 -0.875 0
-0.25 -0.875 0
-0.3125 -0.8125 0
-0.25 -0.8125 0
-0.375 -0.8125 0
-0.3125 -0.8125 0
-0.375 -0.75 0
-0.3125 -0.75 0
-0.3125 -0.8125 0
-0.25 -0.8125 0
-0.3125 -0.75 0
-0.25 -0.75 0
-0.25 -1 0
-0.1875 -1 0
-0.25 -0.9375 0
-0.1875 -0.9375 0
-0.1875 -1 0
-0.125 -1 0
-0.1875 -0.9375 0
-0.125 -0.9375 0
-0.25 -0.9375 0
-0.1875 -0.9375 0
-0.25 -0.875 0
-0.1875 -0.875 0
-0.1875 -0.9375 0
-0.125 -0.9375 0
-0.1875 -0.875 0
-0.125 -0.875 0
-0.125 -1 0
-0.0625 -1 0
-0.125 -0.9375 0
-0.0625 -0.9375 0
-0.0625 -1 0
0 -1 0
-0.0625 -0.9375 0
0 -0.9375 0
-0.125 -0.9375 0
-0.0625 -0.9375 0
-0.125 -0.875 0
-0.0625 -0.875 0
-0.0625 -0.9375 0
0 -0.9375 0
-0.0625 -0.875 0
0 -0.875 0
-0.25 -0.875 0
-0.1875 -0.875 0
-0.25 -0.8125 0
-0.1875 -0.8125 0
-0.1875 -0.875 0
-0.125 -0.875 0
-0.1875 -0.8125 0
-0.125 -0.8125 0
-0.25 -0.8125 0
-0.1875 -0.8125 0
-0.25 -0.75 0
-0.1875 -0.75 0
-0.1875 -0.8125 0
-0.125 -0.8125 0
-0.1875 -0.75 0
-0.125 -0.75 0
-0.125 -0.875 0
-0.0625 -0.875 0
-0.125 -0.8125 0
-0.0625 -0.8125 0
-0.0625 -0.875 0
0 -0.875 0
-0.0625 -0.8125 0
0 -0.8125 0
-0.125 -0.8125 0
-0.0625 -0.8125 0
-0.125 -0.75 0
-0.0625 -0.75 0
-0.0625 -0.8125 0
0 -0.8125 0
-0.0625 -0.75 0
0 -0.75 0
-0.5 -0.75 0
-0.4375 -0.75 0
-0.5 -0.6875 0
-0.4375 -0.6875 0
-0.4375 -0.75 0
-0.375 -0.75 0
-0.4375 -0.6875 0
-0.375 -0.6875 0
-0.5 -0.6875 0
-0.4375 -0.6875 0
-0.5 -0.625 0
-0.4375 -0.625 0
-0.4375 -0.6875 0
-0.375 -0.6875 0
-0.4375 -0.625 0
-0.375 -0.625 0
-0.375 -0.75 0
-0.3125 -0.75 0
-0.375 -0.6875 0
-0.3125 -0.6875 0
-0.3125 -0.75 0
-0.25 -0.75 0
-0.3125 -0.6875 0
-0.25 -0.6875 0
-0.375 -0.6875 0
-0.3125 -0.6875 0
-0.375 -0.625 0
-0.3125 -0.625 0
-0.3125 -0.6875 0
-0.25 -0.6875 0
-0.3125 -0.625 0
-0.25 -0.625 0
-0.5 -0.625 0
-0.4375 -0.625 0
-0.5 -0.5625 0
-0.4375 -0.5625 0
-0.4375 -0.625 0
-0.375 -0.625 0
-0.4375 -0.5625 0
-0.375 -0.5625 0
-0.5 -0.5625 0
-0.4375 -0.5625 0
-0.5 -0.5 0
-0.4375 -0.5 0
-0.4375 -0.5625 0
-0.375 -0.5625 0
-0.4375 -0.5 0
-0.375 -0.5 0
-0.375 -0.625 0
-0.3125 -0.625 0
-0.375 -0.5625 0
-0.3125 -0.5625 0
-0.3125 -0.625 0
-0.25 -0.625 0
-0.3125 -0.5625 0
-0.25 -0.5625 0
-0.375 -0.5625 0
-0.3125 -0.5625 0
-0.375 -0.5 0
-0.3125 -0.5 0
-0.3125 -0.5625 0
-0.25 -0.5625 0
-0.3125 -0.5 0
-0.25 -0.5 0
-0.25 -0.75 0
-0.1875 -0.75 0
-0.25 -0.6875 0
-0.1875 -0.6875 0
-0.1875 -0.75 0
-0.125 -0.75 0
-0.1875 -0.6875 0
-0.125 -0.6875 0
-0.25 -0.6875 0
-0.1875 -0.6875 0
-0.25 -0.625 0
-0.1875 -0.625 0
-0.1875 -0.6875 0
-0.125 -0.6875 0
-0.1875 -0.625 0
-0.125 -0.625 0
-0.125 -0.75 0
-0.0625 -0.75 0
-0.125 -0.6875 0
-0.0625 -0.6875 0
-0.0625 -0.75 0
0 -0.75 0
-0.0625 -0.6875 0
0 -0.6875 0
-0.125 -0.6875 0
-0.0625 -0.6875 0
-0.125 -0.625 0
-0.0625 -0.625 0
-0.0625 -0.6875 0
0 -0.6875 0
-0.0625 -0.625 0
0 -0.625 0
-0.25 -0.625 0
-0.1875 -0.625 0
-0.25 -0.5625 0
-0.1875 -0.5625 0
-0.1875 -0.625 0
-0.125 -0.625 0
-0.1875 -0.5625 0
-0.125 -0.5625 0
-0.25 -0.5625 0
-0.1875 -0.5625 0
-0.25 -0.5 0
-0.1875 -0.5 0
-0.1875 -0.5625 0
-0.125 -0.5625 0
-0.1875 -0.5 0
-0.125 -0.5 0
-0.125 -0.625 0
-0.0625 -0.625 0
-0.125 -0.5625 0
-0.0625 -0.5625 0
-0.0625 -0.625 0
0 -0.625 0
-0.0625 -0.5625 0
0 -0.5625 0
-0.125 -0.5625 0
-0.0625 -0.5625 0
-0.125 -0.5 0
-0.0625 -0.5 0
-0.0625 -0.5625 0
0 -0.5625 0
-0.0625 -0.5 0
0 -0.5 0
-1 -0.5 0
-0.9375 -0.5 0
-1 -0.4375 0
-0.9375 -0.4375 0
-0.9375 -0.5 0
-0.875 -0.5 0
-0.9375 -0.4375 0
-0.875 -0.4375 0
-1 -0.4375 0
-0.9375 -0.4375 0
-1 -0.375 0
-0.9375 -0.375 0
-0.9375 -0.4375 0
-0.875 -0.4375 0
-0.9375 -0.375 0
-0.875 -0.375 0
-0.875 -0.5 0
-0.8125 -0.5 0
-0.875 -0.4375 0
-0.8125 -0.4375 0
-0.8125 -0.5 0
-0.75 -0.5 0
-0.8125 -0.4375 0
-0.75 -0.4375 0
-0.875 -0.4375 0
-0.8125 -0.4375 0
-0.875 -0.375 0
-0.8125 -0.375 0
-0.8125 -0.4375 0
-0.75 -0.4375 0
-0.8125 -0.375 0
-0.75 -0.375 0
-1 -0.375 0
-0.9375 -0.375 0
-1 -0.3125 0
-0.9375 -0.3125 0
-0.9375 -0.375 0
-0.875 -0.375 0
-0.9375 -0.3125 0
-0.875 -0.3125 0
-1 -0.3125 0
-0.9375 -0.3125 0
-1 -0.25 0
-0.9375 -0.25 0
-0.9375 -0.3125 0
-0.875 -0.3125 0
-0.9375 -0.25 0
-0.875 -0.25 0
-0.875 -0.375 0
-0.8125 -0.375 0
-0.875 -0.3125 0
-0.8125 -0.3125 0
-0.8125 -0.375 0
-0.75 -0.375 0
-0.8125 -0.3125 0
-0.75 -0.3125 0
-0.875 -0.3125 0
-0.8125 -0.3125 0
-0.875 -0.25 0
-0.8125 -0.25 0
-0.8125 -0.3125 0
-0.75 -0.3125 0
-0.8125 -0.25 0
-0.75 -0.25 0
-0.75 -0.5 0
-0.6875 -0.5 0
-0.75 -0.4375 0
-0.6875 -0.4375 0
-0.6875 -0.5 0
-0.625 -0.5 0
-0.6875 -0.4375 0
-0.625 -0.4375 0
-0.75 -0.4375 0
-0.6875 -0.4375 0
-0.75 -0.375 0
-0.6875 -0.375 0
-0.6875 -0.4375 0
-0.625 -0.4375 0
-0.6875 -0.375 0
-0.625 -0.375 0
-0.625 -0.5 0
-0.5625 -0.5 0
-0.625 -0.4375 0
-0.5625 -0.4375 0
-0.5625 -0.5 0
-0.5 -0.5 0
-0.5625 -0.4375 0
-0.5 -0.4375 0
-0.625 -0.4375 0
-0.5625 -0.4375 0
-0.625 -0.375 0
-0.5625 -0.375 0
-0.5625 -0.4375 0
-0.5 -0.4375 0
-0.5625 -0.375 0
-0.5 -0.375 0
-0.75 -0.375 0
-0.6875 -0.375 0
-0.75 -0.3125 0
-0.6875 -0.3125 0
-0.6875 -0.375 0
-0.625 -0.375 0
-0.6875 -0.3125 0
[...]
POINT_DATA 4096
VECTORS gradient double
0.000351872 -0.000173906 0
-0.00278679 -0.000858321 0
-0.000664158 -0.00252189 0
-0.00249573 -0.00252273 0
-0.00251067 -0.000920057 0
-0.00795768 -0.00348452 0
-0.00198218 -0.00852753 0
-0.00893517 -0.0132488 0
-0.000331723 -0.00215849 0
-0.00885225 -0.00191112 0
-0.00359056 -0.00703837 0
-0.0131141 -0.00865768 0
-0.00846708 -0.00804886 0
-0.0258526 -0.0120515 0
-0.0120622 -0.0248128 0
-0.0430179 -0.043014 0
-0.00796865 -0.00353341 0
-0.0177605 -0.0113791 0
-0.00885205 -0.0236053 0
-0.0246285 -0.0472743 0
-0.0189419 -0.0114205 0
-0.0328689 -0.0298263 0
-0.0265361 -0.057818 0
-0.0524297 -0.128812 0
-0.0264402 -0.0226021 0
-0.0601506 -0.0451146 0
-0.0438481 -0.0708221 0
-0.112306 -0.150053 0
-0.0637002 -0.0558884 0
-0.113606 -0.125725 0
-0.119585 -0.178333 0
-0.22939 -0.40383 0
-0.00301325 -0.00697622 0
-0.0239843 -0.00851453 0
-0.0118884 -0.0164147 0
-0.0470866 -0.0241748 0
-0.0231277 -0.0253228 0
-0.0719266 -0.043771 0
-0.0451668 -0.0586033 0
-0.14989 -0.112153 0
-0.0113216 -0.0176483 0
-0.057993 -0.0261841 0
-0.0305858 -0.0316735 0
-0.128801 -0.0521121 0
-0.0562964 -0.0622277 0
-0.178915 -0.119642 0
-0.126069 -0.112203 0
-0.404008 -0.229274 0
-0.0738761 -0.0726658 0
-0.173004 -0.154229 0
-0.154173 -0.171296 0
-0.38174 -0.381612 0
-0.183082 -0.183641 0
-0.333868 -0.41703 0
-0.404472 -0.441746 0
-0.764943 -1.01382 0
-0.184347 -0.18156 0
-0.442792 -0.404756 0
-0.417355 -0.332289 0
-1.01474 -0.764569 0
-0.468305 -0.467664 0
-0.870143 -1.07179 0
-1.07202 -0.869212 0
-2.01163 -2.01001 0
-0.0358398 -0.0298537 0
-0.048736 -0.0627586 0
-0.0574513 -0.128238 0
-0.0846486 -0.275541 0
-0.0522324 -0.0628235 0
-0.0543345 -0.106448 0
-0.0906528 -0.252578 0
-0.0987496 -0.46747 0
-0.121213 -0.125213 0
-0.169069 -0.272215 0
-0.245842 -0.402261 0
-0.358798 -0.85782 0
-0.177326 -0.248911 0
-0.187298 -0.464854 0
-0.377118 -0.796241 0
-0.408824 -1.45086 0
-0.0550346 -0.106619 0
-0.0388323 -0.146034 0
-0.100018 -0.426418 0
-0.0712851 -0.632508 0
-0.0345496 -0.14624 0
-0.00360103 -0.162374 0
-0.0640515 -0.598629 0
-0.00451781 -0.685705 0
-0.188276 -0.423115 0
-0.131886 -0.630828 0
-0.411402 -1.3409 0
-0.289992 -1.96335 0
-0.120714 -0.596377 0
-0.0100215 -0.684031 0
-0.265885 -1.87273 0
-0.0167398 -2.1346 0
-0.354784 -0.415483 0
-0.502889 -0.888002 0
-0.812391 -1.01051 0
-1.17909 -2.13803 0
-0.525149 -0.82418 0
-0.559952 -1.50364 0
-1.22967 -2.00729 0
-1.3289 -3.60404 0
-0.921945 -1.0683 0
-1.32426 -2.25554 0
-2.12533 -2.00411 0
-3.07533 -4.21407 0
-1.37861 -2.11886 0
-1.48121 -3.79683 0
-3.19287 -3.98651 0
-3.44455 -7.0836 0
-0.562092 -1.38962 0
-0.393569 -2.03549 0
-1.33368 -3.37077 0
-0.934975 -4.87621 0
-0.362685 -1.94152 0
-0.0264914 -2.21242 0
-0.864687 -4.68419 0
-0.0514635 -5.31466 0
-1.4855 -3.55309 0
-1.03947 -5.13238 0
-3.45169 -6.67808 0
-2.41176 -9.57988 0
-0.962557 -4.93179 0
-0.0615583 -5.59091 0
-2.242 -9.24652 0
-0.12815 -10.4573 0
-0.0306117 -0.034898 0
-0.127877 -0.0574603 0
-0.0633294 -0.04855 0
-0.276058 -0.0848657 0
-0.125187 -0.120122 0
-0.401603 -0.246301 0
-0.273163 -0.168882 0
-0.859083 -0.359031 0
-0.0644636 -0.0523755 0
-0.25176 -0.0912238 0
-0.106475 -0.055708 0
-0.468588 -0.0995945 0
-0.248498 -0.177528 0
-0.794531 -0.377907 0
-0.466351 -0.189103 0
-1.45326 -0.409397 0
-0.414933 -0.353808 0
-1.00989 -0.81307 0
-0.889416 -0.5028 0
-2.14069 -1.17885 0
-1.06696 -0.922101 0
-2.00348 -2.12539 0
-2.25726 -1.32466 0
-4.21774 -3.07387 0
-0.822518 -0.525725 0
-2.00528 -1.23038 0
-1.5061 -0.562358 0
-3.60809 -1.3289 0
-2.11581 -1.38007 0
-3.98472 -3.19287 0
-3.79979 -1.48372 0
-7.08833 -3.44397 0
-0.108434 -0.0565173 0
-0.425844 -0.100873 0
-0.145692 -0.0413511 0
-0.6337 -0.0722389 0
-0.422909 -0.190188 0
-1.33963 -0.411874 0
-0.632174 -0.135259 0
-1.96559 -0.29024 0
-0.147261 -0.0368213 0
-0.599005 -0.0645714 0
-0.162204 -0.00601065 0
-0.686227 -0.00479593 0
-0.596925 -0.123762 0
-1.87331 -0.265276 0
-0.684358 -0.0133606 0
-2.135 -0.0158669 0
-1.38829 -0.564552 0
-3.36939 -1.33339 0
-2.03755 -0.397843 0
-4.87921 -0.934477 0
-3.55052 -1.48783 0
-6.67716 -3.45053 0
-5.13435 -1.04304 0
-9.58237 -2.41147 0
-1.94189 -0.366208 0
-4.68517 -0.862538 0
-2.21232 -0.0304483 0
-5.31402 -0.0495383 0
-4.93173 -0.964558 0
-9.24781 -2.23903 0
-5.58949 -0.0638555 0
-10.4547 -0.126791 0
-2.11668 -2.119 0
-3.0642 -4.44037 0
-4.44186 -3.06527 0
-6.4176 -6.4147 0
-3.18118 -4.20303 0
-3.43295 -7.44772 0
-6.64456 -6.09717 0
-7.16195 -10.7577 0
-4.19907 -3.18368 0
-6.09616 -6.64347 0
-7.45019 -3.4343 0
-10.7605 -7.16162 0
-6.31437 -6.31698 0
-6.82467 -11.1212 0
-11.1224 -6.82383 0
-11.9858 -11.9872 0
-3.44 -7.0252 0
-2.40397 -10.0594 0
-7.17041 -10.1927 0
-4.99956 -14.5402 0
-2.23494 -9.71217 0
-0.127823 -10.9745 0
-4.66316 -14.0764 0
-0.258423 -15.885 0
-6.83392 -10.5409 0
-4.76825 -15.0161 0
-11.994 -11.3873 0
-8.352 -16.1901 0
-4.44664 -14.5398 0
-0.236498 -16.3984 0
-7.80707 -15.6984 0
-0.421513 -17.6916 0
-7.02207 -3.44071 0
-10.1929 -7.16914 0
-10.0603 -2.40419 0
-14.5401 -5.00146 0
-10.5398 -6.83181 0
-11.3898 -11.994 0
-15.0154 -4.76406 0
-16.1865 -8.35707 0
-9.7119 -2.23241 0
-14.0779 -4.66147 0
-10.9714 -0.125319 0
-15.8804 -0.260338 0
-14.5408 -4.43856 0
-15.7005 -7.80819 0
-16.3947 -0.22874 0
-17.6868 -0.42727 0
-11.3995 -11.3952 0
-7.94263 -16.1958 0
-16.194 -7.9367 0
-11.2687 -11.2746 0
-7.42335 -15.705 0
-0.381447 -17.6977 0
-10.5479 -10.9308 0
-0.555882 -12.3128 0
-15.7092 -7.41311 0
-10.9341 -10.5504 0
-17.6952 -0.372795 0
-12.3103 -0.561302 0
-10.2342 -10.2273 0
-0.521921 -11.5312 0
-11.5309 -0.517836 0
-0.593816 -0.593077 0
0.00331274 -0.162377 0
0.0342351 -0.146451 0
0.00714841 -0.685352 0
0.0660494 -0.599337 0
0.0386357 -0.146105 0
0.0548012 -0.107094 0
0.0733279 -0.632872 0
0.10064 -0.426974 0
0.00744441 -0.683686 0
0.11852 -0.596495 0
0.0210622 -2.13378 0
0.269145 -1.87489 0
0.129962 -0.63058 0
0.187287 -0.422843 0
0.293394 -1.9647 0
0.412429 -1.34294 0
0.054186 -0.106574 0
0.0521043 -0.0633426 0
0.0993609 -0.468343 0
0.0900057 -0.252862 0
0.0485752 -0.0629821 0
0.035765 -0.0301272 0
0.0839076 -0.276412 0
0.0561977 -0.128454 0
0.186549 -0.464819 0
0.177577 -0.24847 0
0.409908 -1.45359 0
0.376122 -0.797523 0
0.169333 -0.272284 0
0.122115 -0.12494 0
0.357676 -0.860431 0
0.243893 -0.403114 0
0.0213416 -2.21156 0
0.35832 -1.94156 0
0.0570108 -5.3132 0
0.868753 -4.68892 0
0.38976 -2.03457 0
0.560198 -1.38853 0
0.939491 -4.8794 0
1.33493 -3.3757 0
0.056679 -5.58926 0
0.958258 -4.93163 0
0.131026 -10.4551 0
2.2437 -9.25372 0
1.03604 -5.13027 0
1.48357 -3.55071 0
2.41457 -9.58464 0
3.45199 -6.68578 0
0.558567 -1.50306 0
0.525801 -0.822635 0
1.33046 -3.61003 0
1.22843 -2.01068 0
0.503595 -0.887663 0
0.356769 -0.414419 0
1.1777 -2.14363 0
0.809977 -1.01257 0
1.48007 -3.79511 0
1.37923 -2.11558 0
3.44577 -7.09237 0
3.19218 -3.99179 0
1.32493 -2.25428 0
0.923875 -1.06583 0
3.07456 -4.22214 0
2.12413 -2.00699 0
0.032711 -0.0300855 0
0.0188866 -0.0113693 0
0.0510847 -0.129376 0
0.0253558 -0.0580983 0
0.0176649 -0.0115462 0
0.00794077 -0.00328764 0
0.0234356 -0.0475737 0
0.00811012 -0.0238901 0
0.114383 -0.125787 0
0.0646248 -0.0558851 0
0.227278 -0.405486 0
0.117739 -0.179132 0
0.0609841 -0.0451752 0
0.0270347 -0.0227305 0
0.110422 -0.150925 0
0.0425903 -0.0715762 0
0.00796078 -0.00349635 0
0.00251042 -0.000650222 0
0.00827447 -0.0135406 0
0.00163372 -0.00875203 0
0.00289442 -0.000773147 0
-0.000297312 -0.000128586 0
0.00236691 -0.00336739 0
-0.000230233 -0.00296914 0
0.0264703 -0.0122493 0
0.00851031 -0.00817376 0
0.0419156 -0.0438832 0
0.0109391 -0.0255519 0
0.00905515 -0.00273598 0
-0.00049402 -0.00253873 0
0.0124758 -0.0111593 0
-0.000548126 -0.00894357 0
0.335614 -0.416801 0
0.185073 -0.183383 0
0.762193 -1.01731 0
0.402117 -0.443213 0
0.174811 -0.15419 0
0.0750607 -0.0729176 0
0.379262 -0.38336 0
0.152262 -0.172485 0
0.871672 -1.0709 0
0.470165 -0.466682 0
2.00982 -2.01493 0
1.07065 -0.870833 0
0.44438 -0.404414 0
0.185122 -0.181663 0
1.01306 -0.766945 0
0.415297 -0.333472 0
0.0731688 -0.0443079 0
0.0227389 -0.025842 0
0.148282 -0.11388 0
0.0419911 -0.0600216 0
0.0239856 -0.0109912 0
-0.000996764 -0.00884267 0
0.0449661 -0.0296206 0
-0.00146719 -0.0216802 0
0.179886 -0.120662 0
0.0539525 -0.0632971 0
0.402472 -0.231919 0
0.118655 -0.114325 0
0.0565927 -0.0316524 0
-0.00189284 -0.0230717 0
0.123395 -0.0617135 0
-0.00339336 -0.0426046 0
0.130181 -10.972 0
2.23627 -9.71206 0
0.251495 -15.8824 0
4.65677 -14.0834 0
2.40638 -10.0561 0
3.44023 -7.02193 0
4.99532 -14.544 0
7.16768 -10.1999 0
0.251423 -16.3955 0
4.45787 -14.5411 0
0.40083 -17.6894 0
7.78955 -15.701 0
4.78069 -15.0135 0
6.83802 -10.5393 0
8.33765 -16.1892 0
11.9872 -11.3888 0
3.4341 -7.44492 0
3.18067 -4.19827 0
7.16119 -10.7651 0
6.64578 -6.10159 0
3.06364 -4.43822 0
2.11573 -2.11509 0
6.41904 -6.4216 0
4.44486 -3.06699 0
6.82972 -11.1195 0
6.3119 -6.31348 0
11.9821 -11.9874 0
11.1263 -6.82344 0
6.09353 -6.64235 0
4.19307 -3.18011 0
10.7651 -7.16216 0
7.459 -3.43252 0
0.402804 -17.6954 0
7.43962 -15.7094 0
0.529412 -12.3117 0
10.5258 -10.9267 0
7.96038 -16.1967 0
11.4057 -11.3994 0
11.2501 -11.2678 0
16.1856 -7.93021 0
0.532358 -11.5306 0
10.2417 -10.2346 0
0.579303 -0.593576 0
11.5187 -0.509106 0
10.9437 -10.5561 0
15.7121 -7.42386 0
12.3006 -0.5519 0
17.6907 -0.361938 0
11.3972 -11.997 0
10.5364 -6.83396 0
16.1816 -8.34782 0
15.0205 -4.75769 0
10.1895 -7.17228 0
7.0135 -3.44072 0
14.5463 -4.99375 0
10.0715 -2.39879 0
15.7054 -7.81704 0
14.5395 -4.448 0
17.6852 -0.41314 0
16.3977 -0.220093 0
14.077 -4.66978 0
9.70785 -2.23766 0
15.8847 -0.248485 0
10.9777 -0.119364 0
2.00196 -2.12383 0
1.06578 -0.920117 0
4.21985 -3.07793 0
2.25962 -1.32507 0
1.00842 -0.812423 0
0.412984 -0.353476 0
2.14248 -1.1808 0
0.888429 -0.503093 0
3.97802 -3.19198 0
2.10932 -1.37775 0
7.09611 -3.4442 0
3.80739 -1.48162 0
1.99854 -1.23013 0
0.815794 -0.524954 0
3.61488 -1.3292 0
1.50682 -0.561007 0
0.400166 -0.248008 0
0.117807 -0.121898 0
0.858876 -0.362166 0
0.258848 -0.171318 0
0.12248 -0.0672162 0
-0.00338018 -0.0463308 0
0.265047 -0.0983625 0
-0.00645988 -0.0656233 0
0.788799 -0.380481 0
0.232297 -0.179862 0
1.45503 -0.412141 0
0.443273 -0.190948 0
0.239046 -0.105 0
-0.00569646 -0.0700995 0
0.450229 -0.113914 0
-0.0100368 -0.0747967 0
6.66786 -3.45258 0
3.54108 -1.48677 0
9.59277 -2.40703 0
5.14401 -1.03878 0
3.35973 -1.33469 0
1.37796 -0.563721 0
4.88809 -0.932887 0
2.03819 -0.395032 0
9.24315 -2.24474 0
4.92641 -0.965901 0
10.4606 -0.120282 0
5.59424 -0.0596069 0
4.67957 -0.865708 0
1.93279 -0.365725 0
5.31837 -0.0471893 0
2.20926 -0.0274208 0
1.33076 -0.415097 0
0.396094 -0.19231 0
1.96754 -0.291661 0
0.600847 -0.135455 0
0.404117 -0.11537 0
-0.00877222 -0.0757816 0
0.608262 -0.0819934 0
-0.0127973 -0.0540543 0
1.86588 -0.26819 0
0.562206 -0.124491 0
2.13347 -0.0154726 0
0.648494 -0.0114767 0
0.570489 -0.0741112 0
-0.0118089 -0.0487668 0
0.65677 -0.0053677 0
-0.0135896 -0.00508661 0
-0.162263 0.00127966 0
-0.686551 0.00737024 0
-0.146688 0.033054 0
-0.598995 0.0667152 0
-0.684728 0.00456695 0
-2.13583 0.0228023 0
-0.595638 0.116783 0
-1.87318 0.271059 0
-0.145341 0.0376368 0
-0.634023 0.0741313 0
-0.107418 0.0550267 0
-0.426266 0.101738 0
-0.631245 0.128432 0
-1.96637 0.295439 0
-0.421461 0.187532 0
-1.34052 0.41431 0
-2.21318 0.0182765 0
-5.31565 0.060495 0
-1.93911 0.356658 0
-4.68471 0.871791 0
-5.59103 0.0559882 0
-10.4572 0.134789 0
-4.92703 0.958703 0
-9.24686 2.24621 0
-2.03562 0.388377 0
-4.88069 0.942649 0
-1.38533 0.561065 0
-3.37068 1.33742 0
-5.1313 1.03676 0
-9.58463 2.41713 0
-3.54569 1.48602 0
-6.67866 3.454 0
-0.105807 0.0543435 0
-0.468763 0.100239 0
-0.0633636 0.0531203 0
-0.25233 0.0908197 0
-0.464568 0.186696 0
-1.45364 0.411282 0
-0.247298 0.179037 0
-0.795809 0.376948 0
-0.062466 0.0494501 0
-0.276133 0.0844552 0
-0.0298291 0.0368548 0
-0.128207 0.0564314 0
-0.271347 0.170615 0
-0.859201 0.357982 0
-0.124205 0.123765 0
-0.402366 0.243546 0
-1.50241 0.559099 0
-3.60878 1.33191 0
-0.82028 0.527973 0
-2.00734 1.22901 0
-3.79392 1.48164 0
-7.08943 3.44603 0
-2.11247 1.38185 0
-3.98753 3.19218 0
-0.885792 0.505349 0
-2.14079 1.1773 0
-0.413237 0.358905 0
-1.01124 0.808759 0
-2.25168 1.32665 0
-4.21798 3.07301 0
-1.06481 0.925514 0
-2.0057 2.12231 0
-10.9736 0.135152 0
-15.8833 0.252621 0
-9.70605 2.24105 0
-14.0761 4.65625 0
-16.3972 0.262274 0
-17.6891 0.398063 0
-14.5361 4.46642 0
-15.6974 7.78571 0
-10.057 2.41125 0
-14.5424 4.99464 0
-7.0165 3.44472 0
-10.1937 7.16779 0
-15.014 4.78889 0
-16.1869 8.33324 0
-10.5361 6.84318 0
-11.3879 11.9855 0
-17.6974 0.414437 0
-12.3109 0.525959 0
-15.7082 7.44744 0
-10.9296 10.5227 0
-11.5319 0.538302 0
-0.592511 0.580227 0
-10.2381 10.2444 0
-0.517027 11.5212 0
-16.1965 7.96725 0
-11.2657 11.2457 0
-11.4005 11.4086 0
-7.93629 16.1846 0
-10.5543 10.9448 0
-0.550061 12.3012 0
-7.4292 15.7111 0
-0.372089 17.6929 0
-7.44368 3.43684 0
-10.7615 7.15889 0
-4.19589 3.18264 0
-6.09882 6.64524 0
-11.1187 6.83217 0
-11.985 11.9776 0
-6.31353 6.31174 0
-6.82484 11.1259 0
-4.43594 3.06403 0
-6.41786 6.41648 0
-2.11538 2.11514 0
-3.06711 4.44355 0
-6.64138 6.09114 0
-7.16107 10.7626 0
-3.18236 4.18921 0
-3.43494 7.45926 0
-11.9963 11.3969 0
-8.34754 16.1779 0
-6.83679 10.5335 0
-4.76345 15.0209 0
-7.81575 15.7013 0
-0.414165 17.6851 0
-4.45228 14.5352 0
-0.227154 16.3989 0
-7.17254 10.1842 0
-4.99583 14.545 0
-3.44396 7.00758 0
-2.40258 10.0729 0
-4.67032 14.0708 0
-0.251951 15.8849 0
-2.23993 9.70277 0
-0.122183 10.9785 0
-0.0297512 0.0337242 0
-0.128831 0.0512071 0
-0.0109952 0.0196716 0
-0.0579701 0.0251614 0
-0.124734 0.115942 0
-0.404008 0.22675 0
-0.0554455 0.0658586 0
-0.178863 0.116779 0
-0.011302 0.0184379 0
-0.0470973 0.0232545 0
-0.00302438 0.00837282 0
-0.0237717 0.00774829 0
-0.0443765 0.0622063 0
-0.149845 0.109525 0
-0.022443 0.0277357 0
-0.0714022 0.0415674 0
-0.414854 0.337578 0
-1.0146 0.760677 0
-0.182859 0.186525 0
-0.44289 0.400163 0
-1.06846 0.873006 0
-2.01159 2.0076 0
-0.466608 0.470774 0
-0.870948 1.06826 0
-0.152826 0.176281 0
-0.381629 0.377469 0
-0.0726116 0.0758061 0
-0.172372 0.150446 0
-0.402895 0.445094 0
-0.765133 1.01099 0
-0.181701 0.185115 0
-0.333766 0.413267 0
-0.00332598 0.00839865 0
-0.0132392 0.00795284 0
-0.000532251 0.00270143 0
-0.00866483 0.00125113 0
-0.0117784 0.0271794 0
-0.0432894 0.0409935 0
-0.00801441 0.00883529 0
-0.0254242 0.0100573 0
-0.000686343 0.00308809 0
-0.00323242 0.00200582 0
-0.000124296 -0.000189668 0
-0.00297374 -0.000602635 0
-0.00253389 0.0093832 0
-0.0109213 0.0116454 0
-0.00254031 -0.000299905 0
-0.00895413 -0.00134444 0
-0.0435705 0.0739651 0
-0.113043 0.146681 0
-0.0256584 0.0230252 0
-0.0599276 0.0405489 0
-0.119953 0.180038 0
-0.231226 0.400807 0
-0.0632695 0.0536804 0
-0.114454 0.117144 0
-0.0106982 0.0242955 0
-0.0293234 0.0436297 0
-0.0088511 -0.000859808 0
-0.0217064 -0.0027192 0
-0.0314115 0.0563974 0
-0.0615365 0.122057 0
-0.0231011 -0.00221725 0
-0.0426601 -0.00465452 0
-2.12205 2.00092 0
-3.07565 4.21811 0
-0.921293 1.06401 0
-1.32628 2.25827 0
-3.19185 3.97365 0
-3.44461 7.09606 0
-1.3803 2.1047 0
-1.48391 3.80819 0
-0.811652 1.00693 0
-1.18006 2.14161 0
-0.354364 0.411206 0
-0.504135 0.887496 0
-1.23077 1.99444 0
-1.33034 3.61631 0
-0.526726 0.812192 0
-0.562602 1.50791 0
-3.45386 6.66157 0
-2.40999 9.59416 0
-1.48945 3.53547 0
-1.04092 5.14614 0
-2.24626 9.23804 0
-0.123812 10.4618 0
-0.966915 4.92274 0
-0.0600827 5.59541 0
-1.3363 3.35484 0
-0.935359 4.89092 0
-0.565498 1.3742 0
-0.396266 2.0405 0
-0.867135 4.67672 0
-0.049424 5.32023 0
-0.366295 1.93105 0
-0.0273718 2.21078 0
-0.247886 0.398736 0
-0.362227 0.858448 0
-0.122284 0.116388 0
-0.171843 0.258294 0
-0.381269 0.785763 0
-0.413216 1.45669 0
-0.180699 0.229872 0
-0.191763 0.444371 0
-0.067272 0.121229 0
-0.0985427 0.264721 0
-0.0463981 -0.00459089 0
-0.0657105 -0.00683414 0
-0.10547 0.236889 0
-0.114496 0.451576 0
-0.070201 -0.0076009 0
-0.0748892 -0.0089284 0
-0.416386 1.3277 0
-0.293195 1.97042 0
-0.193198 0.393933 0
-0.136097 0.602978 0
-0.269119 1.86481 0
-0.0164959 2.13545 0
-0.124841 0.561734 0
-0.0114908 0.650095 0
-0.116027 0.402278 0
-0.0826703 0.610623 0
-0.0758771 -0.0102874 0
-0.0541043 -0.0107489 0
-0.0745333 0.57031 0
-0.00571445 0.658555 0
-0.0488027 -0.0118136 0
-0.00506485 -0.0119654 0
0.579951 0.578898 0
11.5212 0.531568 0
0.525317 11.5192 0
10.2444 10.2527 0
12.3027 0.518251 0
17.6934 0.402115 0
10.9369 10.5293 0
15.7109 7.45617 0
0.521911 12.2987 0
10.5314 10.9427 0
0.394826 17.6902 0
7.44737 15.7157 0
11.2452 11.2408 0
16.1879 7.96053 0
7.95423 16.1858 0
11.4076 11.4117 0
17.6879 0.387712 0
16.3999 0.249852 0
15.7015 7.79677 0
14.5352 4.47199 0
15.8871 0.243047 0
10.9791 0.127055 0
14.0761 4.66554 0
9.7029 2.24396 0
16.1813 8.32781 0
15.0193 4.78055 0
11.3951 11.9891 0
10.5326 6.84354 0
14.5493 4.98961 0
10.0689 2.40493 0
10.1907 7.171 0
7.00735 3.44366 0
0.389612 17.6825 0
7.79593 15.7047 0
0.245863 16.3965 0
4.46731 14.5361 0
8.32928 16.1779 0
11.9889 11.3985 0
4.7779 15.0181 0
6.84256 10.5322 0
0.242636 15.8828 0
4.66283 14.0769 0
0.126757 10.9768 0
2.2436 9.70187 0
4.98882 14.5482 0
7.16964 10.191 0
2.40596 10.0691 0
3.44519 7.00498 0
11.9796 11.9795 0
11.1232 6.83134 0
6.83035 11.1235 0
6.31039 6.30885 0
10.7675 7.16059 0
7.45405 3.43496 0
6.09616 6.6437 0
4.18832 3.17947 0
7.15909 10.7687 0
6.64303 6.09561 0
3.43617 7.455 0
3.18138 4.18606 0
6.42047 6.42221 0
4.43994 3.06566 0
3.06661 4.44051 0
2.11352 2.11216 0
10.4623 0.127988 0
5.59498 0.0529268 0
9.24397 2.25103 0
4.92275 0.960641 0
5.31922 0.0568429 0
2.2096 0.0183528 0
4.68058 0.873513 0
1.9308 0.358499 0
9.59653 2.41319 0
5.14181 1.03389 0
6.67015 3.45546 0
3.53592 1.48515 0
4.89087 0.940532 0
2.03701 0.388224 0
3.36142 1.33805 0
1.37489 0.561167 0
2.1338 0.021523 0
0.648644 0.00590144 0
1.86646 0.27307 0
0.561313 0.120029 0
0.656875 0.00735459 0
-0.0134875 0.00346869 0
0.570685 0.0757049 0
-0.0122862 0.0474508 0
1.969 0.296448 0
0.600396 0.131236 0
1.33144 0.417162 0
0.394565 0.190669 0
0.608878 0.0835681 0
-0.0129378 0.0527917 0
0.40416 0.116035 0
-0.00968665 0.0752324 0
7.10017 3.44661 0
3.80339 1.48022 0
3.98065 3.19129 0
2.1047 1.37942 0
3.61814 1.33215 0
1.50462 0.558814 0
2.00008 1.22897 0
0.812789 0.526801 0
4.22252 3.07653 0
2.25535 1.32655 0
2.00438 2.12087 0
1.06302 0.923087 0
2.1446 1.17914 0
0.885855 0.50494 0
1.00974 0.808637 0
0.410982 0.357353 0
1.45679 0.41399 0
0.442333 0.189534 0
0.789234 0.379712 0
0.230655 0.18092 0
0.450954 0.114517 0
-0.0104648 0.0743096 0
0.238868 0.104743 0
-0.00676887 0.0703323 0
0.859932 0.361137 0
0.257569 0.17241 0
0.400555 0.245634 0
0.116624 0.124272 0
0.265353 0.0980184 0
-0.00721694 0.0658877 0
0.122366 0.0664607 0
-0.00419565 0.0470261 0
0.126924 10.4604 0
2.24874 9.24354 0
0.0541353 5.59451 0
0.962102 4.92167 0
2.41225 9.59746 0
3.45462 6.66856 0
1.03616 5.14322 0
1.48733 3.53356 0
0.056236 5.3195 0
0.872558 4.68009 0
0.0193388 2.21039 0
0.359789 1.93039 0
0.940381 4.89287 0
1.33811 3.35949 0
0.389928 2.03888 0
0.562732 1.37335 0
3.44544 7.10195 0
3.19111 3.97916 0
1.48206 3.80473 0
1.38098 2.1028 0
3.07541 4.22384 0
2.1208 2.00362 0
1.3274 2.25587 0
0.92368 1.06226 0
1.33191 3.61986 0
1.22926 1.99844 0
0.560146 1.50595 0
0.527763 0.811536 0
1.17878 2.14534 0
0.808777 1.00911 0
0.50549 0.886257 0
0.357584 0.410575 0
0.0213878 2.13509 0
0.272988 1.86637 0
0.00629103 0.64996 0
0.120616 0.561464 0
0.296773 1.97115 0
0.417619 1.33006 0
0.131996 0.602234 0
0.191389 0.393762 0
0.00736847 0.658387 0
0.0758147 0.570954 0
0.00351018 -0.0120243 0
0.0475237 -0.0119215 0
0.0838346 0.610801 0
0.116351 0.403404 0
0.0528734 -0.0111618 0
0.0753035 -0.010206 0
0.414245 1.45821 0
0.38011 0.788008 0
0.190148 0.443491 0
0.181353 0.229918 0
0.361161 0.860313 0
0.245769 0.400105 0
0.172663 0.257869 0
0.124361 0.116391 0
0.114742 0.452115 0
0.10497 0.238121 0
0.0743757 -0.00939759 0
0.0703639 -0.00732072 0
0.0980884 0.265617 0
0.0665181 0.122094 0
0.0659102 -0.00696177 0
0.0470187 -0.00438484 0
2.01086 2.0115 0
1.0673 0.873465 0
0.873661 1.06732 0
0.469198 0.469167 0
1.01371 0.762867 0
0.413029 0.337137 0
0.445568 0.400241 0
0.184269 0.185284 0