# vtk DataFile Version 3.0
#This file was generated by the deal.II library on 2020/8/22 at 21:53:45
ASCII
DATASET UNSTRUCTURED_GRID

POINTS 1024 double
-1 -1 0
-0.875 -1 0
-1 -0.875 0
-0.875 -0.875 0
-0.875 -1 0
-0.75 -1 0
-0.875 -0.875 0
-0.75 -0.875 0
-1 -0.875 0
-0.875 -0.875 0
-1 -0.75 0
-0.875 -0.75 0
-0.875 -0.875 0
-0.75 -0.875 0
-0.875 -0.75 0
-0.75 -0.75 0
-0.75 -1 0
-0.625 -1 0
-0.75 -0.875 0
-0.625 -0.875 0
-0.625 -1 0
-0.5 -1 0
-0.625 -0.875 0
-0.5 -0.875 0
-0.75 -0.875 0
-0.625 -0.875 0
-0.75 -0.75 0
-0.625 -0.75 0
-0.625 -0.875 0
-0.5 -0.875 0
-0.625 -0.75 0
-0.5 -0.75 0
-1 -0.75 0
-0.875 -0.75 0
-1 -0.625 0
-0.875 -0.625 0
-0.875 -0.75 0
-0.75 -0.75 0
-0.875 -0.625 0
-0.75 -0.625 0
-1 -0.625 0
-0.875 -0.625 0
-1 -0.5 0
-0.875 -0.5 0
-0.875 -0.625 0
-0.75 -0.625 0
-0.875 -0.5 0
-0.75 -0.5 0
-0.75 -0.75 0
-0.625 -0.75 0
-0.75 -0.625 0
-0.625 -0.625 0
-0.625 -0.75 0
-0.5 -0.75 0
-0.625 -0.625 0
-0.5 -0.625 0
-0.75 -0.625 0
-0.625 -0.625 0
-0.75 -0.5 0
-0.625 -0.5 0
-0.625 -0.625 0
-0.5 -0.625 0
-0.625 -0.5 0
-0.5 -0.5 0
-0.5 -1 0
-0.375 -1 0
-0.5 -0.875 0
-0.375 -0.875 0
-0.375 -1 0
-0.25 -1 0
-0.375 -0.875 0
-0.25 -0.875 0
-0.5 -0.875 0
-0.375 -0.875 0
-0.5 -0.75 0
-0.375 -0.75 0
-0.375 -0.875 0
-0.25 -0.875 0
-0.375 -0.75 0
-0.25 -0.75 0
-0.25 -1 0
-0.125 -1 0
-0.25 -0.875 0
-0.125 -0.875 0
-0.125 -1 0
0 -1 0
-0.125 -0.875 0
0 -0.875 0
-0.25 -0.875 0
-0.125 -0.875 0
-0.25 -0.75 0
-0.125 -0.75 0
-0.125 -0.875 0
0 -0.875 0
-0.125 -0.75 0
0 -0.75 0
-0.5 -0.75 0
-0.375 -0.75 0
-0.5 -0.625 0
-0.375 -0.625 0
-0.375 -0.75 0
-0.25 -0.75 0
-0.375 -0.625 0
-0.25 -0.625 0
-0.5 -0.625 0
-0.375 -0.625 0
-0.5 -0.5 0
-0.375 -0.5 0
-0.375 -0.625 0
-0.25 -0.625 0
-0.375 -0.5 0
-0.25 -0.5 0
-0.25 -0.75 0
-0.125 -0.75 0
-0.25 -0.625 0
-0.125 -0.625 0
-0.125 -0.75 0
0 -0.75 0
-0.125 -0.625 0
0 -0.625 0
-0.25 -0.625 0
-0.125 -0.625 0
-0.25 -0.5 0
-0.125 -0.5 0
-0.125 -0.625 0
0 -0.625 0
-0.125 -0.5 0
0 -0.5 0
-1 -0.5 0
-0.875 -0.5 0
-1 -0.375 0
-0.875 -0.375 0
-0.875 -0.5 0
-0.75 -0.5 0
-0.875 -0.375 0
-0.75 -0.375 0
-1 -0.375 0
-0.875 -0.375 0
-1 -0.25 0
-0.875 -0.25 0
-0.875 -0.375 0
-0.75 -0.375 0
-0.875 -0.25 0
-0.75 -0.25 0
-0.75 -0.5 0
-0.625 -0.5 0
-0.75 -0.375 0
-0.625 -0.375 0
-0.625 -0.5 0
-0.5 -0.5 0
-0.625 -0.375 0
-0.5 -0.375 0
-0.75 -0.375 0
-0.625 -0.375 0
-0.75 -0.25 0
-0.625 -0.25 0
-0.625 -0.375 0
-0.5 -0.375 0
-0.625 -0.25 0
-0.5 -0.25 0
-1 -0.25 0
-0.875 -0.25 0
-1 -0.125 0
-0.875 -0.125 0
-0.875 -0.25 0
-0.75 -0.25 0
-0.875 -0.125 0
-0.75 -0.125 0
-1 -0.125 0
-0.875 -0.125 0
-1 0 0
-0.875 0 0
-0.875 -0.125 0
-0.75 -0.125 0
-0.875 0 0
-0.75 0 0
-0.75 -0.25 0
-0.625 -0.25 0
-0.75 -0.125 0
-0.625 -0.125 0
-0.625 -0.25 0
-0.5 -0.25 0
-0.625 -0.125 0
-0.5 -0.125 0
-0.75 -0.125 0
-0.625 -0.125 0
-0.75 0 0
-0.625 0 0
-0.625 -0.125 0
-0.5 -0.125 0
-0.625 0 0
-0.5 0 0
-0.5 -0.5 0
-0.375 -0.5 0
-0.5 -0.375 0
-0.375 -0.375 0
-0.375 -0.5 0
-0.25 -0.5 0
-0.375 -0.375 0
-0.25 -0.375 0
-0.5 -0.375 0
-0.375 -0.375 0
-0.5 -0.25 0
-0.375 -0.25 0
-0.375 -0.375 0
-0.25 -0.375 0
-0.375 -0.25 0
-0.25 -0.25 0
-0.25 -0.5 0
-0.125 -0.5 0
-0.25 -0.375 0
-0.125 -0.375 0
-0.125 -0.5 0
0 -0.5 0
-0.125 -0.375 0
0 -0.375 0
-0.25 -0.375 0
-0.125 -0.375 0
-0.25 -0.25 0
-0.125 -0.25 0
-0.125 -0.375 0
0 -0.375 0
-0.125 -0.25 0
0 -0.25 0
-0.5 -0.25 0
-0.375 -0.25 0
-0.5 -0.125 0
-0.375 -0.125 0
-0.375 -0.25 0
-0.25 -0.25 0
-0.375 -0.125 0
-0.25 -0.125 0
-0.5 -0.125 0
-0.375 -0.125 0
-0.5 0 0
-0.375 0 0
-0.375 -0.125 0
-0.25 -0.125 0
-0.375 0 0
-0.25 0 0
-0.25 -0.25 0
-0.125 -0.25 0
-0.25 -0.125 0
-0.125 -0.125 0
-0.125 -0.25 0
0 -0.25 0
-0.125 -0.125 0
0 -0.125 0
-0.25 -0.125 0
-0.125 -0.125 0
-0.25 0 0
-0.125 0 0
-0.125 -0.125 0
0 -0.125 0
-0.125 0 0
0 0 0
0 -1 0
0.125 -1 0
0 -0.875 0
0.125 -0.875 0
0.125 -1 0
0.25 -1 0
0.125 -0.875 0
0.25 -0.875 0
0 -0.875 0
0.125 -0.875 0
0 -0.75 0
0.125 -0.75 0
0.125 -0.875 0
0.25 -0.875 0
0.125 -0.75 0
0.25 -0.75 0
0.25 -1 0
0.375 -1 0
0.25 -0.875 0
0.375 -0.875 0
0.375 -1 0
0.5 -1 0
0.375 -0.875 0
0.5 -0.875 0
0.25 -0.875 0
0.375 -0.875 0
0.25 -0.75 0
0.375 -0.75 0
0.375 -0.875 0
0.5 -0.875 0
0.375 -0.75 0
0.5 -0.75 0
0 -0.75 0
0.125 -0.75 0
0 -0.625 0
0.125 -0.625 0
0.125 -0.75 0
0.25 -0.75 0
0.125 -0.625 0
0.25 -0.625 0
0 -0.625 0
0.125 -0.625 0
0 -0.5 0
0.125 -0.5 0
0.125 -0.625 0
0.25 -0.625 0
0.125 -0.5 0
0.25 -0.5 0
0.25 -0.75 0
0.375 -0.75 0
0.25 -0.625 0
0.375 -0.625 0
0.375 -0.75 0
0.5 -0.75 0
0.375 -0.625 0
0.5 -0.625 0
0.25 -0.625 0
0.375 -0.625 0
0.25 -0.5 0
0.375 -0.5 0
0.375 -0.625 0
0.5 -0.625 0
0.375 -0.5 0
0.5 -0.5 0
0.5 -1 0
0.625 -1 0
0.5 -0.875 0
0.625 -0.875 0
0.625 -1 0
0.75 -1 0
0.625 -0.875 0
0.75 -0.875 0
0.5 -0.875 0
0.625 -0.875 0
0.5 -0.75 0
0.625 -0.75 0
0.625 -0.875 0
0.75 -0.875 0
0.625 -0.75 0
0.75 -0.75 0
0.75 -1 0
0.875 -1 0
0.75 -0.875 0
0.875 -0.875 0
0.875 -1 0
1 -1 0
0.875 -0.875 0
1 -0.875 0
0.75 -0.875 0
0.875 -0.875 0
0.75 -0.75 0
0.875 -0.75 0
0.875 -0.875 0
1 -0.875 0
0.875 -0.75 0
1 -0.75 0
0.5 -0.75 0
0.625 -0.75 0
0.5 -0.625 0
0.625 -0.625 0
0.625 -0.75 0
0.75 -0.75 0
0.625 -0.625 0
0.75 -0.625 0
0.5 -0.625 0
0.625 -0.625 0
0.5 -0.5 0
0.625 -0.5 0
0.625 -0.625 0
0.75 -0.625 0
0.625 -0.5 0
0.75 -0.5 0
0.75 -0.75 0
0.875 -0.75 0
0.75 -0.625 0
0.875 -0.625 0
0.875 -0.75 0
1 -0.75 0
0.875 -0.625 0
1 -0.625 0
0.75 -0.625 0
0.875 -0.625 0
0.75 -0.5 0
0.875 -0.5 0
0.875 -0.625 0
1 -0.625 0
0.875 -0.5 0
1 -0.5 0
0 -0.5 0
0.125 -0.5 0
0 -0.375 0
0.125 -0.375 0
0.125 -0.5 0
0.25 -0.5 0
0.125 -0.375 0
0.25 -0.375 0
0 -0.375 0
0.125 -0.375 0
0 -0.25 0
0.125 -0.25 0
0.125 -0.375 0
0.25 -0.375 0
0.125 -0.25 0
0.25 -0.25 0
0.25 -0.5 0
0.375 -0.5 0
0.25 -0.375 0
0.375 -0.375 0
0.375 -0.5 0
0.5 -0.5 0
0.375 -0.375 0
0.5 -0.375 0
0.25 -0.375 0
0.375 -0.375 0
0.25 -0.25 0
0.375 -0.25 0
0.375 -0.375 0
0.5 -0.375 0
0.375 -0.25 0
0.5 -0.25 0
0 -0.25 0
0.125 -0.25 0
0 -0.125 0
0.125 -0.125 0
0.125 -0.25 0
0.25 -0.25 0
0.125 -0.125 0
0.25 -0.125 0
0 -0.125 0
0.125 -0.125 0
0 0 0
0.125 0 0
0.125 -0.125 0
0.25 -0.125 0
0.125 0 0
0.25 0 0
0.25 -0.25 0
0.375 -0.25 0
0.25 -0.125 0
0.375 -0.125 0
0.375 -0.25 0
0.5 -0.25 0
0.375 -0.125 0
0.5 -0.125 0
0.25 -0.125 0
0.375 -0.125 0
0.25 0 0
0.375 0 0
0.375 -0.125 0
0.5 -0.125 0
0.375 0 0
0.5 0 0
0.5 -0.5 0
0.625 -0.5 0
0.5 -0.375 0
0.625 -0.375 0
0.625 -0.5 0
0.75 -0.5 0
0.625 -0.375 0
0.75 -0.375 0
0.5 -0.375 0
0.625 -0.375 0
0.5 -0.25 0
0.625 -0.25 0
0.625 -0.375 0
0.75 -0.375 0
0.625 -0.25 0
0.75 -0.25 0
0.75 -0.5 0
0.875 -0.5 0
0.75 -0.375 0
0.875 -0.375 0
0.875 -0.5 0
1 -0.5 0
0.875 -0.375 0
1 -0.375 0
0.75 -0.375 0
0.875 -0.375 0
0.75 -0.25 0
0.875 -0.25 0
0.875 -0.375 0
1 -0.375 0
0.875 -0.25 0
1 -0.25 0
0.5 -0.25 0
0.625 -0.25 0
0.5 -0.125 0
0.625 -0.125 0
0.625 -0.25 0
0.75 -0.25 0
0.625 -0.125 0
0.75 -0.125 0
0.5 -0.125 0
0.625 -0.125 0
0.5 0 0
0.625 0 0
0.625 -0.125 0
0.75 -0.125 0
0.625 0 0
0.75 0 0
0.75 -0.25 0
0.875 -0.25 0
0.75 -0.125 0
0.875 -0.125 0
0.875 -0.25 0
1 -0.25 0
0.875 -0.125 0
1 -0.125 0
0.75 -0.125 0
0.875 -0.125 0
0.75 0 0
0.875 0 0
0.875 -0.125 0
1 -0.125 0
0.875 0 0
1 0 0
-1 0 0
-0.875 0 0
-1 0.125 0
-0.875 0.125 0
-0.875 0 0
-0.75 0 0
-0.875 0.125 0
-0.75 0.125 0
-1 0.125 0
-0.875 0.125 0
-1 0.25 0
-0.875 0.25 0
-0.875 0.125 0
-0.75 0.125 0
-0.875 0.25 0
-0.75 0.25 0
-0.75 0 0
-0.625 0 0
-0.75 0.125 0
-0.625 0.125 0
-0.625 0 0
-0.5 0 0
-0.625 0.125 0
-0.5 0.125 0
-0.75 0.125 0
-0.625 0.125 0
-0.75 0.25 0
-0.625 0.25 0
-0.625 0.125 0
-0.5 0.125 0
-0.625 0.25 0
-0.5 0.25 0
-1 0.25 0
-0.875 0.25 0
-1 0.375 0
-0.875 0.375 0
-0.875 0.25 0
-0.75 0.25 0
-0.875 0.375 0
-0.75 0.375 0
-1 0.375 0
-0.875 0.375 0
-1 0.5 0
-0.875 0.5 0
-0.875 0.375 0
-0.75 0.375 0
-0.875 0.5 0
-0.75 0.5 0
-0.75 0.25 0
-0.625 0.25 0
-0.75 0.375 0
-0.625 0.375 0
-0.625 0.25 0
-0.5 0.25 0
-0.625 0.375 0
-0.5 0.375 0
-0.75 0.375 0
-0.625 0.375 0
-0.75 0.5 0
-0.625 0.5 0
-0.625 0.375 0
-0.5 0.375 0
-0.625 0.5 0
-0.5 0.5 0
-0.5 0 0
-0.375 0 0
-0.5 0.125 0
-0.375 0.125 0
-0.375 0 0
-0.25 0 0
-0.375 0.125 0
-0.25 0.125 0
-0.5 0.125 0
-0.375 0.125 0
-0.5 0.25 0
-0.375 0.25 0
-0.375 0.125 0
-0.25 0.125 0
-0.375 0.25 0
-0.25 0.25 0
-0.25 0 0
-0.125 0 0
-0.25 0.125 0
-0.125 0.125 0
-0.125 0 0
0 0 0
-0.125 0.125 0
0 0.125 0
-0.25 0.125 0
-0.125 0.125 0
-0.25 0.25 0
-0.125 0.25 0
-0.125 0.125 0
0 0.125 0
-0.125 0.25 0
0 0.25 0
-0.5 0.25 0
-0.375 0.25 0
-0.5 0.375 0
-0.375 0.375 0
-0.375 0.25 0
-0.25 0.25 0
-0.375 0.375 0
-0.25 0.375 0
-0.5 0.375 0
-0.375 0.375 0
-0.5 0.5 0
-0.375 0.5 0
-0.375 0.375 0
-0.25 0.375 0
-0.375 0.5 0
-0.25 0.5 0
-0.25 0.25 0
-0.125 0.25 0
-0.25 0.375 0
-0.125 0.375 0
-0.125 0.25 0
0 0.25 0
-0.125 0.375 0
0 0.375 0
-0.25 0.375 0
-0.125 0.375 0
-0.25 0.5 0
-0.125 0.5 0
-0.125 0.375 0
0 0.375 0
-0.125 0.5 0
0 0.5 0
-1 0.5 0
-0.875 0.5 0
-1 0.625 0
-0.875 0.625 0
-0.875 0.5 0
-0.75 0.5 0
-0.875 0.625 0
-0.75 0.625 0
-1 0.625 0
-0.875 0.625 0
-1 0.75 0
-0.875 0.75 0
-0.875 0.625 0
-0.75 0.625 0
-0.875 0.75 0
-0.75 0.75 0
-0.75 0.5 0
-0.625 0.5 0
-0.75 0.625 0
-0.625 0.625 0
-0.625 0.5 0
-0.5 0.5 0
-0.625 0.625 0
-0.5 0.625 0
-0.75 0.625 0
-0.625 0.625 0
-0.75 0.75 0
-0.625 0.75 0
-0.625 0.625 0
-0.5 0.625 0
-0.625 0.75 0
-0.5 0.75 0
-1 0.75 0
-0.875 0.75 0
-1 0.875 0
-0.875 0.875 0
-0.875 0.75 0
-0.75 0.75 0
-0.875 0.875 0
-0.75 0.875 0
-1 0.875 0
-0.875 0.875 0
-1 1 0
-0.875 1 0
-0.875 0.875 0
-0.75 0.875 0
-0.875 1 0
-0.75 1 0
-0.75 0.75 0
-0.625 0.75 0
-0.75 0.875 0
-0.625 0.875 0
-0.625 0.75 0
-0.5 0.75 0
-0.625 0.875 0
-0.5 0.875 0
-0.75 0.875 0
-0.625 0.875 0
-0.75 1 0
-0.625 1 0
-0.625 0.875 0
-0.5 0.875 0
-0.625 1 0
-0.5 1 0
-0.5 0.5 0
-0.375 0.5 0
-0.5 0.625 0
-0.375 0.625 0
-0.375 0.5 0
-0.25 0.5 0
-0.375 0.625 0
-0.25 0.625 0
-0.5 0.625 0
-0.375 0.625 0
-0.5 0.75 0
-0.375 0.75 0
-0.375 0.625 0
-0.25 0.625 0
-0.375 0.75 0
-0.25 0.75 0
-0.25 0.5 0
-0.125 0.5 0
-0.25 0.625 0
-0.125 0.625 0
-0.125 0.5 0
0 0.5 0
-0.125 0.625 0
0 0.625 0
-0.25 0.625 0
-0.125 0.625 0
-0.25 0.75 0
-0.125 0.75 0
-0.125 0.625 0
0 0.625 0
-0.125 0.75 0
0 0.75 0
-0.5 0.75 0
-0.375 0.75 0
-0.5 0.875 0
-0.375 0.875 0
-0.375 0.75 0
-0.25 0.75 0
-0.375 0.875 0
-0.25 0.875 0
-0.5 0.875 0
-0.375 0.875 0
-0.5 1 0
-0.375 1 0
-0.375 0.875 0
-0.25 0.875 0
-0.375 1 0
-0.25 1 0
-0.25 0.75 0
-0.125 0.75 0
-0.25 0.875 0
-0.125 0.875 0
-0.125 0.75 0
0 0.75 0
-0.125 0.875 0
0 0.875 0
-0.25 0.875 0
-0.125 0.875 0
-0.25 1 0
-0.125 1 0
-0.125 0.875 0
0 0.875 0
-0.125 1 0
0 1 0
0 0 0
0.125 0 0
0 0.125 0
0.125 0.125 0
0.125 0 0
0.25 0 0
0.125 0.125 0
0.25 0.125 0
0 0.125 0
0.125 0.125 0
0 0.25 0
0.125 0.25 0
0.125 0.125 0
0.25 0.125 0
0.125 0.25 0
0.25 0.25 0
0.25 0 0
0.375 0 0
0.25 0.125 0
0.375 0.125 0
0.375 0 0
0.5 0 0
0.375 0.125 0
0.5 0.125 0
0.25 0.125 0
0.375 0.125 0
0.25 0.25 0
0.375 0.25 0
0.375 0.125 0
0.5 0.125 0
0.375 0.25 0
0.5 0.25 0
0 0.25 0
0.125 0.25 0
0 0.375 0
0.125 0.375 0
0.125 0.25 0
0.25 0.25 0
0.125 0.375 0
0.25 0.375 0
0 0.375 0
0.125 0.375 0
0 0.5 0
0.125 0.5 0
0.125 0.375 0
0.25 0.375 0
0.125 0.5 0
0.25 0.5 0
0.25 0.25 0
0.375 0.25 0
0.25 0.375 0
0.375 0.375 0
0.375 0.25 0
0.5 0.25 0
0.375 0.375 0
0.5 0.375 0
0.25 0.375 0
0.375 0.375 0
0.25 0.5 0
0.375 0.5 0
0.375 0.375 0
0.5 0.375 0
0.375 0.5 0
0.5 0.5 0
0.5 0 0
0.625 0 0
0.5 0.125 0
0.625 0.125 0
0.625 0 0
0.75 0 0
0.625 0.125 0
0.75 0.125 0
0.5 0.125 0
0.625 0.125 0
0.5 0.25 0
0.625 0.25 0
0.625 0.125 0
0.75 0.125 0
0.625 0.25 0
0.75 0.25 0
0.75 0 0
0.875 0 0
0.75 0.125 0
0.875 0.125 0
0.875 0 0
1 0 0
0.875 0.125 0
1 0.125 0
0.75 0.125 0
0.875 0.125 0
0.75 0.25 0
0.875 0.25 0
0.875 0.125 0
1 0.125 0
0.875 0.25 0
1 0.25 0
0.5 0.25 0
0.625 0.25 0
0.5 0.375 0
0.625 0.375 0
0.625 0.25 0
0.75 0.25 0
0.625 0.375 0
0.75 0.375 0
0.5 0.375 0
0.625 0.375 0
0.5 0.5 0
0.625 0.5 0
0.625 0.375 0
0.75 0.375 0
0.625 0.5 0
0.75 0.5 0
0.75 0.25 0
0.875 0.25 0
0.75 0.375 0
0.875 0.375 0
0.875 0.25 0
1 0.25 0
0.875 0.375 0
1 0.375 0
0.75 0.375 0
0.875 0.375 0
0.75 0.5 0
0.875 0.5 0
0.875 0.375 0
1 0.375 0
0.875 0.5 0
1 0.5 0
0 0.5 0
0.125 0.5 0
0 0.625 0
0.125 0.625 0
0.125 0.5 0
0.25 0.5 0
0.125 0.625 0
0.25 0.625 0
0 0.625 0
0.125 0.625 0
0 0.75 0
0.125 0.75 0
0.125 0.625 0
0.25 0.625 0
0.125 0.75 0
0.25 0.75 0
0.25 0.5 0
0.375 0.5 0
0.25 0.625 0
0.375 0.625 0
0.375 0.5 0
0.5 0.5 0
0.375 0.625 0
0.5 0.625 0
0.25 0.625 0
0.375 0.625 0
0.25 0.75 0
0.375 0.75 0
0.375 0.625 0
0.5 0.625 0
0.375 0.75 0
0.5 0.75 0
0 0.75 0
0.125 0.75 0
0 0.875 0
0.125 0.875 0
0.125 0.75 0
0.25 0.75 0
0.125 0.875 0
0.25 0.875 0
0 0.875 0
0.125 0.875 0
0 1 0
0.125 1 0
0.125 0.875 0
0.25 0.875 0
0.125 1 0
0.25 1 0
0.25 0.75 0
0.375 0.75 0
0.25 0.875 0
0.375 0.875 0
0.375 0.75 0
0.5 0.75 0
0.375 0.875 0
0.5 0.875 0
0.25 0.875 0
0.375 0.875 0
0.25 1 0
0.375 1 0
0.375 0.875 0
0.5 0.875 0
0.375 1 0
0.5 1 0
0.5 0.5 0
0.625 0.5 0
0.5 0.625 0
0.625 0.625 0
0.625 0.5 0
0.75 0.5 0
0.625 0.625 0
0.75 0.625 0
0.5 0.625 0
0.625 0.625 0
0.5 0.75 0
0.625 0.75 0
0.625 0.625 0
0.75 0.625 0
0.625 0.75 0
0.75 0.75 0
0.75 0.5 0
0.875 0.5 0
0.75 0.625 0
0.875 0.625 0
0.875 0.5 0
1 0.5 0
0.875 0.625 0
1 0.625 0
0.75 0.625 0
0.875 0.625 0
0.75 0.75 0
0.875 0.75 0
0.875 0.625 0
1 0.625 0
0.875 0.75 0
1 0.75 0
0.5 0.75 0
0.625 0.75 0
0.5 0.875 0
0.625 0.875 0
0.625 0.75 0
0.75 0.75 0
0.625 0.875 0
0.75 0.875 0
0.5 0.875 0
0.625 0.875 0
0.5 1 0
0.625 1 0
0.625 0.875 0
0.75 0.875 0
0.625 1 0
0.75 1 0
0.75 0.75 0
0.875 0.75 0
0.75 0.875 0
0.875 0.875 0
0.875 0.75 0
1 0.75 0
0.875 0.875 0
1 0.875 0
0.75 0.875 0
0.875 0.875 0
0.75 1 0
0.875 1 0
0.875 0.875 0
1 0.875 0
0.875 1 0
1 1 0

CELLS 256 1280
4	0	1	3	2
4	4	5	7	6
4	8	9	11	10
4	12	13	15	14
4	16	17	19	18
4	20	21	23	22
4	24	25	27	26
4	28	29	31	30
4	32	33	35	34
4	36	37	39	38
4	40	41	43	42
4	44	45	47	46
4	48	49	51	50
4	52	53	55	54
4	56	57	59	58
4	60	61	63	62
4	64	65	67	66
4	68	69	71	70
4	72	73	75	74
4	76	77	79	78
4	80	81	83	82
4	84	85	87	86
4	88	89	91	90
4	92	93	95	94
4	96	97	99	98
4	100	101	103	102
4	104	105	107	106
4	108	109	111	110
4	112	113	115	114
4	116	117	119	118
4	120	121	123	122
4	124	125	127	126
4	128	129	131	130
4	132	133	135	134
4	136	137	139	138
4	140	141	143	142
4	144	145	147	146
4	148	149	151	150
4	152	153	155	154
4	156	157	159	158
4	160	161	163	162
4	164	165	167	166
4	168	169	171	170
4	172	173	175	174
4	176	177	179	178
4	180	181	183	182
4	184	185	187	186
4	188	189	191	190
4	192	193	195	194
4	196	197	199	198
4	200	201	203	202
4	204	205	207	206
4	208	209	211	210
4	212	213	215	214
4	216	217	219	218
4	220	221	223	222
4	224	225	227	226
4	228	229	231	230
4	232	233	235	234
4	236	237	239	238
4	240	241	243	242
4	244	245	247	246
4	248	249	251	250
4	252	253	255	254
4	256	257	259	258
4	260	261	263	262
4	264	265	267	266
4	268	269	271	270
4	272	273	275	274
4	276	277	279	278
4	280	281	283	282
4	284	285	287	286
4	288	289	291	290
4	292	293	295	294
4	296	297	299	298
4	300	301	303	302
4	304	305	307	306
4	308	309	311	310
4	312	313	315	314
4	316	317	319	318
4	320	321	323	322
4	324	325	327	326
4	328	329	331	330
4	332	333	335	334
4	336	337	339	338
4	340	341	343	342
4	344	345	347	346
4	348	349	351	350
4	352	353	355	354
4	356	357	359	358
4	360	361	363	362
4	364	365	367	366
4	368	369	371	370
4	372	373	375	374
4	376	377	379	378
4	380	381	383	382
4	384	385	387	386
4	388	389	391	390
4	392	393	395	394
4	396	397	399	398
4	400	401	403	402
4	404	405	407	406
4	408	409	411	410
4	412	413	415	414
4	416	417	419	418
4	420	421	423	422
4	424	425	427	426
4	428	429	431	430
4	432	433	435	434
4	436	437	439	438
4	440	441	443	442
4	444	445	447	446
4	448	449	451	450
4	452	453	455	454
4	456	457	459	458
4	460	461	463	462
4	464	465	467	466
4	468	469	471	470
4	472	473	475	474
4	476	477	479	478
4	480	481	483	482
4	484	485	487	486
4	488	489	491	490
4	492	493	495	494
4	496	497	499	498
4	500	501	503	502
4	504	505	507	506
4	508	509	511	510
4	512	513	515	514
4	516	517	519	518
4	520	521	523	522
4	524	525	527	526
4	528	529	531	530
4	532	533	535	534
4	536	537	539	538
4	540	541	543	542
4	544	545	547	546
4	548	549	551	550
4	552	553	555	554
4	556	557	559	558
4	560	561	563	562
4	564	565	567	566
4	568	569	571	570
4	572	573	575	574
4	576	577	579	578
4	580	581	583	582
4	584	585	587	586
4	588	589	591	590
4	592	593	595	594
4	596	597	599	598
4	600	601	603	602
4	604	605	607	606
4	608	609	611	610
4	612	613	615	614
4	616	617	619	618
4	620	621	623	622
4	624	625	627	626
4	628	629	631	630
4	632	633	635	634
4	636	637	639	638
4	640	641	643	642
4	644	645	647	646
4	648	649	651	650
4	652	653	655	654
4	656	657	659	658
4	660	661	663	662
4	664	665	667	666
4	668	669	671	670
4	672	673	675	674
4	676	677	679	678
4	680	681	683	682
4	684	685	687	686
4	688	689	691	690
4	692	693	695	694
4	696	697	699	698
4	700	701	703	702
4	704	705	707	706
4	708	709	711	710
4	712	713	715	714
4	716	717	719	718
4	720	721	723	722
4	724	725	727	726
4	728	729	731	730
4	732	733	735	734
4	736	737	739	738
4	740	741	743	742
4	744	745	747	746
4	748	749	751	750
4	752	753	755	754
4	756	757	759	758
4	760	761	763	762
4	764	765	767	766
4	768	769	771	770
4	772	773	775	774
4	776	777	779	778
4	780	781	783	782
4	784	785	787	786
4	788	789	791	790
4	792	793	795	794
4	796	797	799	798
4	800	801	803	802
4	804	805	807	806
4	808	809	811	810
4	812	813	815	814
4	816	817	819	818
4	820	821	823	822
4	824	825	827	826
4	828	829	831	830
4	832	833	835	834
4	836	837	839	838
4	840	841	843	842
4	844	845	847	846
4	848	849	851	850
4	852	853	855	854
4	856	857	859	858
4	860	861	863	862
4	864	865	867	866
4	868	869	871	870
4	872	873	875	874
4	876	877	879	878
4	880	881	883	882
4	884	885	887	886
4	888	889	891	890
4	892	893	895	894
4	896	897	899	898
4	900	901	903	902
4	904	905	907	906
4	908	909	911	910
4	912	913	915	914
4	916	917	919	918
4	920	921	923	922
4	924	925	927	926
4	928	929	931	930
4	932	933	935	934
4	936	937	939	938
4	940	941	943	942
4	944	945	947	946
4	948	949	951	950
4	952	953	955	954
4	956	957	959	958
4	960	961	963	962
4	964	965	967	966
4	968	969	971	970
4	972	973	975	974
4	976	977	979	978
4	980	981	983	982
4	984	985	987	986
4	988	989	991	990
4	992	993	995	994
4	996	997	999	998
4	1000	1001	1003	1002
4	1004	1005	1007	1006
4	1008	1009	1011	1010
4	1012	1013	1015	1014
4	1016	1017	1019	1018
4	1020	1021	1023	1022

CELL_TYPES 256
 9 9 9 9 9 9 9 9 9 9 9 9 9 9 9 9 9 9 9 9 9 9 9 9 9 9 9 9 9 9 9 9 9 9 9 9 9 9 9 9 9 9 9 9 9 9 9 9 9 9 9 9 9 9 9 9 9 9 9 9 9 9 9 9 9 9 9 9 9 9 9 9 9 9 9 9 9 9 9 9 9 9 9 9 9 9 9 9 9 9 9 9 9 9 9 9 9 9 9 9 9 9 9 9 9 9 9 9 9 9 9 9 9 9 9 9 9 9 9 9 9 9 9 9 9 9 9 9 9 9 9 9 9 9 9 9 9 9 9 9 9 9 9 9 9 9 9 9 9 9 9 9 9 9 9 9 9 9 9 9 9 9 9 9 9 9 9 9 9 9 9 9 9 9 9 9 9 9 9 9 9 9 9 9 9 9 9 9 9 9 9 9 9 9 9 9 9 9 9 9 9 9 9 9 9 9 9 9 9 9 9 9 9 9 9 9 9 9 9 9 9 9 9 9 9 9 9 9 9 9 9 9 9 9 9 9 9 9 9 9 9 9 9 9 9 9 9 9 9 9 9 9 9 9 9 9
POINT_DATA 1024
VECTORS gradient double
0.00539835 0.00309893 0
-0.0297526 0.00931712 0
0.00732741 -0.0222077 0
-0.000445735 0.00045862 0
-0.030423 0.00959378 0
-0.0832603 0.0230476 0
0.0081991 -0.0865184 0
-0.0733181 -0.260151 0
0.0111461 -0.0215891 0
-0.0924604 0.00971613 0
0.0149064 -0.0732036 0
-0.260037 -0.0681967 0
-0.0971308 -0.0905301 0
-0.327916 -0.278329 0
-0.277761 -0.319434 0
-1.49146 -1.47778 0
-0.120212 0.022476 0
-0.131015 0.0110437 0
-0.159217 -0.196486 0
-0.2403 -1.34089 0
-0.138004 0.00602113 0
-0.0396537 -0.0172566 0
-0.268906 -1.0487 0
-0.0886934 -2.12822 0
-0.456471 -0.206482 0
-0.566669 -1.52179 0
-2.03578 -1.27146 0
-3.0026 -6.72827 0
-0.585892 -1.19051 0
-0.143885 -2.43181 0
-3.08119 -5.93069 0
-0.583738 -10.6855 0
0.0129704 -0.116468 0
-0.185874 -0.164224 0
0.00665574 -0.140649 0
-1.35634 -0.244315 0
-0.19429 -0.458636 0
-1.26686 -2.0428 0
-1.53476 -0.582359 0
-6.76201 -2.99615 0
-0.00701968 -0.149278 0
-1.04714 -0.269715 0
-0.0146512 -0.0607799 0
-2.13556 -0.0934342 0
-1.18569 -0.600497 0
-5.94596 -3.06048 0
-2.43107 -0.170637 0
-10.6755 -0.582002 0
-1.76977 -1.79555 0
-2.6864 -8.55896 0
-8.56692 -2.68722 0
-12.5022 -12.5021 0
-2.769 -7.6182 0
-0.534365 -13.3456 0
-12.6002 -11.4651 0
-1.96733 -19.6404 0
-7.61001 -2.75313 0
-11.4873 -12.5748 0
-13.3265 -0.516052 0
-19.6007 -1.99983 0
-11.6098 -11.5563 0
-1.7775 -19.7021 0
-19.6967 -1.74989 0
-2.89724 -2.90936 0
0.0428823 -0.0170623 0
0.135965 0.00143638 0
0.0987696 -2.12278 0
0.267468 -1.06027 0
0.13123 0.00796778 0
0.118003 0.0179864 0
0.242407 -1.35494 0
0.154855 -0.194676 0
0.135293 -2.42437 0
0.575353 -1.19182 0
0.591566 -10.6767 0
3.0709 -5.98059 0
0.563928 -1.52373 0
0.459489 -0.198863 0
3.00791 -6.78049 0
2.03526 -1.28327 0
0.0787334 0.0190691 0
0.0281519 0.010072 0
0.0659324 -0.266065 0
-0.0107347 -0.0895065 0
0.0278733 0.00842603 0
-0.00466972 0.00492697 0
-0.000509952 -0.004689 0
-0.0086251 -0.0238336 0
0.327026 -0.27955 0
0.0995836 -0.0914123 0
1.48326 -1.50208 0
0.277091 -0.323728 0
0.0949864 0.00418847 0
-0.0121328 -0.0222619 0
0.263858 -0.0834257 0
-0.0393272 -0.0775385 0
0.550451 -13.3287 0
2.76402 -7.61562 0
1.93284 -19.6295 0
12.565 -11.4936 0
2.69403 -8.55254 0
1.76618 -1.77053 0
12.5073 -12.5221 0
8.58646 -2.68509 0
1.81951 -19.6926 0
11.6128 -11.5969 0
2.82886 -2.90308 0
19.6524 -1.69527 0
11.5142 -12.6072 0
7.60079 -2.76031 0
19.6034 -1.92948 0
13.3575 -0.490343 0
1.25696 -2.03577 0
0.191374 -0.451324 0
6.76861 -3.00355 0
1.54156 -0.571031 0
0.188002 -0.175566 0
-0.037228 -0.121423 0
1.37198 -0.258514 0
-0.10918 -0.143716 0
5.92761 -3.07616 0
1.17037 -0.592118 0
10.6997 -0.555004 0
2.4436 -0.152521 0
1.04563 -0.286071 0
-0.0992733 -0.154107 0
2.16064 -0.0923715 0
-0.150518 -0.0531992 0
-0.0154758 0.0298244 0
-2.14164 0.108161 0
0.000537354 0.137427 0
-1.0438 0.282406 0
-2.4369 0.12267 0
-10.6916 0.620376 0
-1.16529 0.585101 0
-5.92939 3.09426 0
0.0125887 0.130931 0
-1.35226 0.248704 0
0.0200799 0.126036 0
-0.191335 0.157809 0
-1.5119 0.568055 0
-6.74932 3.00552 0
-0.190814 0.474312 0
-1.27182 2.02763 0
-13.3373 0.598098 0
-19.6137 1.9278 0
-7.58018 2.80631 0
-11.4675 12.561 0
-19.7087 1.87364 0
-2.88826 2.82031 0
-11.602 11.6299 0
-1.75987 19.6691 0
-8.53671 2.70985 0
-12.4913 12.4649 0
-1.77822 1.76467 0
-2.6944 8.57609 0
-12.6032 11.4867 0
-1.95379 19.5869 0
-2.78126 7.56618 0
-0.522458 13.3635 0
0.0223384 0.0853591 0
-0.258544 0.0655447 0
0.0125927 0.0315541 0
-0.0906251 -0.0172007 0
-0.266451 0.339082 0
-1.48028 1.47051 0
-0.0911039 0.104145 0
-0.326315 0.258693 0
0.010359 0.0315221 0
-0.00249792 -0.00526066 0
0.00502599 -0.00287102 0
-0.0239449 -0.0142058 0
0.00813487 0.100396 0
-0.0792603 0.251233 0
-0.0223213 -0.0102097 0
-0.0780578 -0.0513385 0
-2.03191 1.24864 0
-3.00013 6.75785 0
-0.462649 0.171794 0
-0.580198 1.53883 0
-3.08534 5.89095 0
-0.58376 10.7115 0
-0.603608 1.14218 0
-0.156416 2.4581 0
-0.179624 0.17386 0
-0.263403 1.37816 0
-0.122178 -0.051492 0
-0.144559 -0.103523 0
-0.294074 1.0279 0
-0.101838 2.18206 0
-0.15505 -0.111773 0
-0.05309 -0.132009 0
2.82604 2.80916 0
19.6675 1.82941 0
1.78985 19.6573 0
11.6128 11.6606 0
19.6183 1.88647 0
13.3657 0.557469 0
11.4899 12.5918 0
7.57112 2.79388 0
1.88873 19.5745 0
12.568 11.5196 0
0.554397 13.3488 0
2.79489 7.56446 0
12.4856 12.495 0
8.5625 2.70387 0
2.70659 8.56467 0
1.76491 1.74928 0
10.7134 0.593205 0
2.44711 0.12197 0
5.92561 3.09651 0
1.152 0.579361 0
2.16473 0.106951 0
-0.148426 0.041077 0
1.0442 0.293248 0
-0.10538 0.148243 0
6.77724 3.01346 0
1.52771 0.562383 0
1.26493 2.02481 0
0.180113 0.46375 0
1.37659 0.263208 0
-0.11205 0.139686 0
0.186283 0.171477 0
-0.0434291 0.125684 0
0.591266 10.7048 0
3.08668 5.92706 0
0.131592 2.45258 0
0.590777 1.14299 0
3.00488 6.78951 0
2.02767 1.25766 0
0.571847 1.53334 0
0.469371 0.172867 0
0.109702 2.17819 0
0.296289 1.03875 0
0.0415897 -0.133622 0
0.148884 -0.109207 0
0.264721 1.38508 0
0.174375 0.179792 0
0.140282 -0.104643 0
0.12548 -0.0473742 0
1.48137 1.48598 0
0.264093 0.333878 0
0.335483 0.263203 0
0.0997396 0.100526 0
0.260831 0.0773358 0
-0.0463107 0.0818547 0
0.0990017 -0.00953845 0
-0.0123544 0.0277831 0
0.0769454 0.260117 0
-0.00966531 0.0995665 0
0.0814982 -0.0470661 0
0.0273025 -0.0114353 0
0.00227796 0.00211202 0
-0.0105003 0.0294441 0
0.0289866 -0.0105924 0
-0.00317026 -0.00295181 0
0.00175683 0.00503067 0
-0.0325823 0.0104011 0
0.0130841 -0.0238529 0
0.00420442 -0.0024346 0
-0.0326054 0.0126344 0
-0.0862734 0.0224452 0
0.0161547 -0.0905652 0
-0.0664636 -0.258518 0
0.00909075 -0.0222234 0
-0.101446 0.00819697 0
0.0501506 -0.077897 0
-0.252361 -0.0791871 0
-0.105185 -0.0910456 0
-0.339987 -0.266437 0
-0.259812 -0.326245 0
-1.47153 -1.48032 0
-0.126931 0.0201858 0
-0.131553 0.0127742 0
-0.15871 -0.191317 0
-0.24939 -1.35232 0
-0.138012 0.000720134 0
-0.0298888 -0.0152283 0
-0.283064 -1.04388 0
-0.108462 -2.14193 0
-0.475199 -0.190809 0
-0.56871 -1.51199 0
-2.02864 -1.27187 0
-3.00643 -6.74954 0
-0.585726 -1.1654 0
-0.122902 -2.43726 0
-3.09515 -5.92963 0
-0.621174 -10.6922 0
0.0503073 -0.122012 0
-0.174982 -0.17955 0
0.102226 -0.144341 0
-1.37941 -0.263312 0
-0.172906 -0.462578 0
-1.24966 -2.03195 0
-1.54007 -0.580107 0
-6.75902 -3.00018 0
0.110477 -0.154826 0
-1.02914 -0.293979 0
0.13057 -0.052827 0
-2.18345 -0.101724 0
-1.14341 -0.603513 0
-5.89212 -3.08538 0
-2.45948 -0.156292 0
-10.7128 -0.583822 0
-1.76567 -1.77827 0
-2.71073 -8.53692 0
-8.57724 -2.69446 0
-12.466 -12.4915 0
-2.80717 -7.58042 0
-0.598842 -13.3378 0
-12.5621 -11.4677 0
-1.92896 -19.6142 0
-7.56733 -2.78131 0
-11.4878 -12.6034 0
-13.3648 -0.52251 0
-19.5881 -1.95392 0
-11.631 -11.6022 0
-1.87481 -19.7091 0
-19.6703 -1.76003 0
-2.82158 -2.8884 0
0.060782 -0.0144105 0
0.150303 -0.00679316 0
0.0931781 -2.13589 0
0.270081 -1.04803 0
0.141803 0.00686755 0
0.119696 0.0129532 0
0.244754 -1.35734 0
0.165912 -0.188243 0
0.170453 -2.43148 0
0.601028 -1.1867 0
0.58122 -10.6761 0
3.05966 -5.94728 0
0.582971 -1.53591 0
0.460728 -0.196981 0
2.99534 -6.76344 0
2.04141 -1.26986 0
0.0766977 0.0148549 0
0.0292547 0.010358 0
0.0700291 -0.262554 0
-0.00532851 -0.0980301 0
0.0303382 0.00613786 0
0.0150798 0.00143859 0
0.00471798 -0.00481539 0
-0.00941456 -0.036139 0
0.32164 -0.28069 0
0.0970814 -0.103734 0
1.47635 -1.49491 0
0.274755 -0.335455 0
0.0927713 0.00233819 0
0.0233193 -0.0410347 0
0.256565 -0.0824142 0
-0.0373535 -0.105088 0
0.515326 -13.3271 0
2.75242 -7.61125 0
1.99866 -19.6012 0
12.5733 -11.4881 0
2.68652 -8.56823 0
1.79428 -1.77241 0
12.5006 -12.5031 0
8.55684 -2.68785 0
1.74872 -19.6971 0
11.5548 -11.6105 0
2.90805 -2.89737 0
19.7007 -1.77771 0
11.4635 -12.6009 0
7.61508 -2.77004 0
19.6388 -1.96749 0
13.3443 -0.534395 0
1.27026 -2.03863 0
0.201068 -0.462174 0
6.72601 -3.00401 0
1.51961 -0.568727 0
0.191649 -0.163627 0
-0.0589153 -0.12638 0
1.33682 -0.245401 0
0.0265233 -0.144537 0
5.92762 -3.08198 0
1.17935 -0.586251 0
10.684 -0.583541 0
2.43618 -0.142597 0
1.03941 -0.270956 0
-0.0923496 -0.142351 0
2.13133 -0.0845967 0
0.0729413 -0.0251206 0
0.132186 0.0418573 0
-2.17958 0.109817 0
0.107604 0.149165 0
-1.04031 0.29644 0
-2.45397 0.131717 0
-10.7061 0.591208 0
-1.14457 0.590981 0
-5.92851 3.08648 0
0.103081 0.14056 0
-1.38663 0.264866 0
0.0457117 0.125795 0
-0.181572 0.174712 0
-1.53495 0.57204 0
-6.79102 3.00466 0
-0.174823 0.470078 0
-1.25953 2.02691 0
-13.3501 0.554349 0
-19.5757 1.88861 0
-7.56585 2.79472 0
-11.5208 12.5679 0
-19.6585 1.7897 0
-2.81043 2.82592 0
-11.6618 11.6125 0
-1.83059 19.6677 0
-8.56608 2.70642 0
-12.4962 12.4855 0
-1.75086 1.76407 0
-2.70489 8.56245 0
-12.5929 11.4896 0
-1.88759 19.6185 0
-2.79464 7.56971 0
-0.558025 13.3672 0
0.0457048 0.0817638 0
-0.261652 0.0772303 0
0.0104721 0.0285736 0
-0.101634 -0.0088797 0
-0.264971 0.336062 0
-1.48763 1.48027 0
-0.10338 0.103748 0
-0.337881 0.262119 0
0.0121564 0.0299621 0
0.000916686 0.0018089 0
0.00346845 0.00595763 0
-0.0330899 -0.0112035 0
0.0122165 0.101271 0
-0.0695783 0.252192 0
-0.0345648 0.0106302 0
-0.094663 -0.033999 0
-2.0258 1.26385 0
-3.01385 6.77627 0
-0.466016 0.176008 0
-0.563482 1.53349 0
-3.0965 5.92351 0
-0.593447 10.7136 0
-0.579192 1.14628 0
-0.120392 2.46028 0
-0.158537 0.176051 0
-0.248561 1.36472 0
-0.12607 -0.0483593 0
-0.1376 0.0134795 0
-0.277319 1.0223 0
-0.102624 2.15419 0
-0.139621 -0.059939 0
-0.0267521 0.0539861 0
2.90177 2.82874 0
19.6911 1.81929 0
1.69399 19.6526 0
11.5953 11.6129 0
19.628 1.93257 0
13.3274 0.549971 0
11.4919 12.5653 0
7.61228 2.7646 0
1.92814 19.6036 0
12.6056 11.5144 0
0.489151 13.359 0
2.75928 7.6001 0
12.5205 12.5077 0
8.55022 2.69509 0
2.68434 8.58738 0
1.7696 1.76768 0
10.6753 0.590627 0
2.42849 0.132652 0
5.97736 3.07112 0
1.17949 0.57552 0
2.12563 0.092173 0
0.0701411 0.0215789 0
1.04981 0.269348 0
-0.0937601 0.139608 0
6.77812 3.00879 0
1.52047 0.565974 0
1.28279 2.03717 0
0.192755 0.466633 0
1.34953 0.247216 0
0.0272003 0.143482 0
0.189115 0.160609 0
-0.0642548 0.127978 0
0.553296 10.7 0
3.07415 5.9263 0
0.149901 2.45705 0
0.591421 1.16486 0
3.00197 6.76872 0
2.03405 1.25854 0
0.571635 1.54826 0
0.454794 0.18892 0
0.0851949 2.15034 0
0.268544 1.02387 0
0.0391407 0.0531079 0
0.145624 -0.0558154 0
0.242607 1.36101 0
0.163949 0.179007 0
0.141579 0.0161351 0
0.123121 -0.0442458 0
1.50106 1.48545 0
0.275358 0.335975 0
0.32933 0.277174 0
0.100538 0.110618 0
0.261614 0.0769949 0
-0.0388353 0.105613 0
0.09727 -0.00365811 0
0.0260044 0.0431213 0
0.077343 0.256838 0
-0.00200464 0.103162 0
0.0929761 -0.0295932 0
0.0366516 0.0117587 0
0.00704569 0.0035438 0
-0.00889743 0.0376595 0
0.0349661 -0.00867047 0
0.0155178 0.00704514 0
0.00492219 0.00355392 0
-0.0239272 0.00749933 0
0.00842536 -0.0289857 0
-0.0048245 -0.000634439 0
-0.0223616 0.0110096 0
-0.0777014 0.0381345 0
0.00404125 -0.0961292 0
-0.083677 -0.26508 0
0.0100712 -0.0292606 0
-0.0896435 0.00959097 0
0.0190387 -0.0797917 0
-0.266269 -0.0670566 0
-0.0915613 -0.100726 0
-0.323981 -0.278315 0
-0.279771 -0.328147 0
-1.50243 -1.48449 0
-0.121592 0.0360381 0
-0.143935 0.107878 0
-0.175826 -0.189223 0
-0.258859 -1.37331 0
-0.154331 0.0979723 0
-0.0534685 0.149073 0
-0.286424 -1.04696 0
-0.0927949 -2.16211 0
-0.451586 -0.192596 0
-0.571374 -1.5429 0
-2.03614 -1.25819 0
-3.00403 -6.76996 0
-0.592469 -1.17171 0
-0.152933 -2.44508 0
-3.07664 -5.92897 0
-0.555611 -10.7011 0
0.0179557 -0.119053 0
-0.194883 -0.155975 0
0.0078753 -0.132172 0
-1.35525 -0.243469 0
-0.199088 -0.460604 0
-1.28363 -2.0365 0
-1.52407 -0.564976 0
-6.78099 -3.00915 0
0.00134316 -0.136895 0
-1.0606 -0.268522 0
-0.0172468 -0.0435845 0
-2.1233 -0.0997013 0
-1.19217 -0.576393 0
-5.98111 -3.07214 0