# vtk DataFile Version 3.0
#This file was generated by the deal.II library on 2020/8/22 at 21:53:34
ASCII
DATASET UNSTRUCTURED_GRID

POINTS 208 double
0 0 0
0.5 0 0
0 0.5 0
0.5 0.5 0
0.5 0 0
1 0 0
0.5 0.5 0
1 0.5 0
0 0.5 0
0.5 0.5 0
0 1 0
0.5 1 0
0.5 0.5 0
1 0.5 0
0.5 1 0
1 1 0
-1 -0.5 0
-0.75 -0.5 0
-1 -0.25 0
-0.75 -0.25 0
-0.75 -0.5 0
-0.5 -0.5 0
-0.75 -0.25 0
-0.5 -0.25 0
-1 -0.25 0
-0.75 -0.25 0
-1 0 0
-0.75 0 0
-0.75 -0.25 0
-0.5 -0.25 0
-0.75 0 0
-0.5 0 0
-0.5 -0.5 0
-0.25 -0.5 0
-0.5 -0.25 0
-0.25 -0.25 0
-0.25 -0.5 0
0 -0.5 0
-0.25 -0.25 0
0 -0.25 0
-0.5 -0.25 0
-0.25 -0.25 0
-0.5 0 0
-0.25 0 0
-0.25 -0.25 0
0 -0.25 0
-0.25 0 0
0 0 0
-1 0 0
-0.75 0 0
-1 0.25 0
-0.75 0.25 0
-0.75 0 0
-0.5 0 0
-0.75 0.25 0
-0.5 0.25 0
-1 0.25 0
-0.75 0.25 0
-1 0.5 0
-0.75 0.5 0
-0.75 0.25 0
-0.5 0.25 0
-0.75 0.5 0
-0.5 0.5 0
-0.5 0 0
-0.25 0 0
-0.5 0.25 0
-0.25 0.25 0
-0.25 0 0
0 0 0
-0.25 0.25 0
0 0.25 0
-0.5 0.25 0
-0.25 0.25 0
-0.5 0.5 0
-0.25 0.5 0
-0.25 0.25 0
0 0.25 0
-0.25 0.5 0
0 0.5 0
-1 -1 0
-0.75 -1 0
-1 -0.75 0
-0.75 -0.75 0
-0.75 -1 0
-0.5 -1 0
-0.75 -0.75 0
-0.5 -0.75 0
-1 -0.75 0
-0.75 -0.75 0
-1 -0.5 0
-0.75 -0.5 0
-0.75 -0.75 0
-0.5 -0.75 0
-0.75 -0.5 0
-0.5 -0.5 0
-0.5 -1 0
-0.25 -1 0
-0.5 -0.75 0
-0.25 -0.75 0
-0.25 -1 0
0 -1 0
-0.25 -0.75 0
0 -0.75 0
-0.5 -0.75 0
-0.25 -0.75 0
-0.5 -0.5 0
-0.25 -0.5 0
-0.25 -0.75 0
0 -0.75 0
-0.25 -0.5 0
0 -0.5 0
0 -1 0
0.25 -1 0
0 -0.75 0
0.25 -0.75 0
0.25 -1 0
0.5 -1 0
0.25 -0.75 0
0.5 -0.75 0
0 -0.75 0
0.25 -0.75 0
0 -0.5 0
0.25 -0.5 0
0.25 -0.75 0
0.5 -0.75 0
0.25 -0.5 0
0.5 -0.5 0
0.5 -1 0
0.75 -1 0
0.5 -0.75 0
0.75 -0.75 0
0.75 -1 0
1 -1 0
0.75 -0.75 0
1 -0.75 0
0.5 -0.75 0
0.75 -0.75 0
0.5 -0.5 0
0.75 -0.5 0
0.75 -0.75 0
1 -0.75 0
0.75 -0.5 0
1 -0.5 0
0 -0.5 0
0.25 -0.5 0
0 -0.25 0
0.25 -0.25 0
0.25 -0.5 0
0.5 -0.5 0
0.25 -0.25 0
0.5 -0.25 0
0 -0.25 0
0.25 -0.25 0
0 0 0
0.25 0 0
0.25 -0.25 0
0.5 -0.25 0
0.25 0 0
0.5 0 0
0.5 -0.5 0
0.75 -0.5 0
0.5 -0.25 0
0.75 -0.25 0
0.75 -0.5 0
1 -0.5 0
0.75 -0.25 0
1 -0.25 0
0.5 -0.25 0
0.75 -0.25 0
0.5 0 0
0.75 0 0
0.75 -0.25 0
1 -0.25 0
0.75 0 0
1 0 0
-1 0.5 0
-0.75 0.5 0
-1 0.75 0
-0.75 0.75 0
-0.75 0.5 0
-0.5 0.5 0
-0.75 0.75 0
-0.5 0.75 0
-1 0.75 0
-0.75 0.75 0
-1 1 0
-0.75 1 0
-0.75 0.75 0
-0.5 0.75 0
-0.75 1 0
-0.5 1 0
-0.5 0.5 0
-0.25 0.5 0
-0.5 0.75 0
-0.25 0.75 0
-0.25 0.5 0
0 0.5 0
-0.25 0.75 0
0 0.75 0
-0.5 0.75 0
-0.25 0.75 0
-0.5 1 0
-0.25 1 0
-0.25 0.75 0
0 0.75 0
-0.25 1 0
0 1 0

CELLS 52 260
4	0	1	3	2
4	4	5	7	6
4	8	9	11	10
4	12	13	15	14
4	16	17	19	18
4	20	21	23	22
4	24	25	27	26
4	28	29	31	30
4	32	33	35	34
4	36	37	39	38
4	40	41	43	42
4	44	45	47	46
4	48	49	51	50
4	52	53	55	54
4	56	57	59	58
4	60	61	63	62
4	64	65	67	66
4	68	69	71	70
4	72	73	75	74
4	76	77	79	78
4	80	81	83	82
4	84	85	87	86
4	88	89	91	90
4	92	93	95	94
4	96	97	99	98
4	100	101	103	102
4	104	105	107	106
4	108	109	111	110
4	112	113	115	114
4	116	117	119	118
4	120	121	123	122
4	124	125	127	126
4	128	129	131	130
4	132	133	135	134
4	136	137	139	138
4	140	141	143	142
4	144	145	147	146
4	148	149	151	150
4	152	153	155	154
4	156	157	159	158
4	160	161	163	162
4	164	165	167	166
4	168	169	171	170
4	172	173	175	174
4	176	177	179	178
4	180	181	183	182
4	184	185	187	186
4	188	189	191	190
4	192	193	195	194
4	196	197	199	198
4	200	201	203	202
4	204	205	207	206

CELL_TYPES 52
 9 9 9 9 9 9 9 9 9 9 9 9 9 9 9 9 9 9 9 9 9 9 9 9 9 9 9 9 9 9 9 9 9 9 9 9 9 9 9 9 9 9 9 9 9 9 9 9 9 9 9 9
POINT_DATA 208
VECTORS gradient double
0.23905 0.135181 0
0.3119 0.269796 0
0.388859 0.273994 0
0.209095 0.158646 0
0.359187 0.280467 0
0.396435 -0.0334405 0
0.206755 0.159516 0
0.20546 0.00540447 0
0.399447 0.394856 0
0.212254 0.195139 0
-0.0324511 0.507706 0
0.00648147 0.20335 0
0.204203 0.1912 0
0.201471 0.00383197 0
0.000680042 0.200059 0
-0.00380399 0.00253321 0
1.01818 0.343577 0
-11.2965 1.6846 0
0.518949 1.01508 0
1.29523 2.53678 0
-22.5313 1.15372 0
-10.1316 10.1986 0
-0.0638585 0.440895 0
-0.653778 22.9213 0
0.476418 0.69649 0
-0.138364 0.552794 0
0.0378576 0.41769 0
-0.244471 -0.0654871 0
-2.16275 -0.931672 0
-1.43148 11.7149 0
-0.609526 -0.160143 0
-0.203702 -0.49029 0
10.631 10.1409 0
23.017 1.02939 0
1.24519 22.8963 0
0.503879 0.274937 0
11.8056 1.63487 0
-0.640401 0.370565 0
-0.813493 2.39532 0
-0.0850395 0.831277 0
1.92456 11.7547 0
2.6068 -0.977718 0
0.513824 -0.521339 0
0.973074 -0.24596 0
0.619787 0.482723 0
-0.0388412 0.484342 0
0.618166 -0.140764 0
0.283729 0.189572 0
0.0360671 0.441667 0
-0.232114 0.594108 0
0.202758 0.147217 0
-0.37329 0.0477636 0
-0.595216 0.632248 0
-0.205234 1.14855 0
-2.24995 1.48153 0
-1.46244 -11.2041 0
0.261408 -0.179179 0
1.02176 -1.85697 0
0.539166 0.105791 0
-11.5633 -1.19252 0
-0.161622 0.216308 0
-0.592331 -22.4647 0
-22.8015 -0.508779 0
-10.526 -10.0605 0
0.505144 1.13035 0
0.959875 0.539306 0
1.74654 -11.258 0
2.46959 1.33603 0
0.599507 0.5086 0
0.496094 0.172378 0
0.537135 -0.105079 0
-0.16824 -0.269045 0
1.13913 -22.4531 0
0.350381 0.0439518 0
10.2361 -9.97476 0
22.9778 -0.636502 0
-0.901398 -2.04076 0
-0.690771 -0.410839 0
11.7877 -1.29243 0
0.0894203 0.150042 0
0.504089 -0.463658 0
-0.180359 -0.0184659 0
0.720338 -0.494408 0
-0.121915 -0.492763 0
-0.493915 0.0361191 0
-0.156877 0.441701 0
-2.04762 0.901944 0
-1.36206 -11.6119 0
0.76179 -0.855517 0
1.33394 -2.48528 0
1.02018 -0.436682 0
-11.2758 -1.72806 0
0.0357591 -0.438661 0
-0.649568 -22.9314 0
-22.5603 -0.877213 0
-10.174 -10.7356 0
0.458711 0.453662 0
0.712261 0.245703 0
1.83009 -11.6842 0
2.41828 0.933749 0
0.38591 0.18714 0
0.0935206 0.025545 0
0.503242 -0.461165 0
-0.0816097 -0.327918 0
1.14646 -22.9232 0
0.345581 -0.257798 0
10.7147 -10.6331 0
23.0263 -0.70435 0
-0.930037 -2.34588 0
-0.119755 -0.699838 0
11.7506 -1.57558 0
-0.656383 -0.33891 0
0.120973 0.0274656 0
-0.155281 0.406972 0
0.572194 -0.339998 0
-0.0776163 -0.274821 0
-0.473574 0.44962 0
0.169758 0.829563 0
-2.06897 1.15946 0
-1.26477 -11.4923 0
0.666627 -0.713848 0
1.40559 -2.30368 0
0.97371 -0.335552 0
-11.2705 -1.58801 0
0.0256559 -0.203978 0
-0.737121 -22.7204 0
-22.4836 -0.810837 0
-9.80058 -10.2981 0
0.938923 0.8316 0
1.26053 0.409239 0
2.1343 -11.4692 0
2.80091 1.09301 0
0.86608 0.367763 0
0.627259 -0.0158688 0
0.78235 -0.361531 0
0.145158 -0.408213 0
1.27946 -22.7464 0
0.747804 -0.174566 0
11.1203 -10.3383 0
23.2976 -0.816163 0
-0.608309 -2.24686 0
-0.153549 -0.559734 0
11.9665 -1.5194 0
0.2135 -0.186422 0
1.0024 0.381832 0
-11.3105 1.76946 0
0.692895 0.84118 0
1.41515 2.43616 0
-22.4575 1.08876 0
-9.74382 10.4677 0
0.172819 0.33077 0
-0.630088 22.9185 0
0.60259 0.479793 0
-0.0523066 0.439896 0
0.261002 0.367019 0
-0.166265 -0.270985 0
-1.92848 -0.979241 0
-1.21547 11.682 0
-0.29222 -0.71723 0
0.190114 -0.103677 0
11.0146 10.5523 0
23.2857 0.969161 0
1.06767 22.9283 0
0.572317 0.157087 0
12.0371 1.64055 0
0.176772 0.190067 0
-0.590719 2.23417 0
-0.27376 0.548485 0
1.91831 11.6301 0
2.63677 -1.10167 0
0.538304 -0.121195 0
0.952415 -0.747362 0
0.788678 0.335293 0
0.0702243 0.379252 0
0.815855 -0.319562 0
0.50947 0.204836 0
0.526592 0.732274 0
-11.491 2.02308 0
0.262991 1.20473 0
1.09432 2.85307 0
-22.8086 1.30988 0
-10.6291 10.8508 0
-0.251962 0.777588 0
-0.793815 23.4262 0
0.203147 0.924211 0
-0.320381 0.975588 0
-0.0337456 0.850331 0
-0.374219 0.316439 0
-2.29693 -0.449973 0
-1.62824 12.1786 0
-0.554301 -0.0872775 0
-0.261771 0.634891 0
10.2916 10.8091 0
22.9985 1.26247 0
1.19107 23.399 0
0.343623 0.749961 0
11.7449 2.02207 0
0.113517 0.562294 0
-1.03425 2.82924 0
-0.823748 1.074 0
1.70615 12.2026 0
2.42177 -0.553679 0
0.135855 0.646833 0
0.580808 -0.0870683 0
0.43083 0.867443 0
-0.316418 0.919211 0
0.409008 0.260746 0
0.267484 0.602121 0
SCALARS solution double 1
LOOKUP_TABLE default
0.32843 0.193192 0.236715 0.1039 0.193914 -0.0019026 0.101632 0.00131326 0.238449 0.101714 -0.00340202 -0.00140797 0.0996671 0.0015237 -0.00111402 -4.06363e-05 0.903322 1.35499 0.629368 0.27224 0.645023 8.01071 0.0972262 0.61039 0.654438 0.448883 0.529551 0.528492 0.24972 1.31671 0.491527 0.722669 8.01211 0.519921 0.6003 -0.0279214 1.23805 0.657664 0.147444 0.379857 1.31171 0.135536 0.723906 0.408308 0.335943 0.416393 0.445365 0.355179 0.53001 0.527641 0.440444 0.311584 0.490697 0.71894 0.126044 1.16816 0.416191 0.14092 0.513969 1.04971 -0.0157139 0.457046 0.339193 7.78419 0.720487 0.408776 1.17224 0.0563177 0.443874 0.342056 0.244658 0.35125 0.453611 -0.119143 7.79467 0.36234 0.0476029 0.341338 1.06389 0.438413 0.56958 0.53051 0.660874 0.451885 0.507336 0.6762 0.288307 1.23952 0.632423 0.269726 0.898047 1.35455 0.134073 0.530441 0.654447 8.00032 0.674098 0.440937 1.23783 0.181102 0.464704 0.421282 0.351244 0.435061 0.526457 0.0234635 8.00167 0.524137 0.16472 0.397052 1.23477 0.656698 0.420776 0.410242 0.435823 0.233249 0.385562 0.526038 0.0568783 1.02767 0.397788 0.0332094 0.660127 1.13845 -0.118987 0.317318 0.432282 7.72756 0.521714 0.139526 1.02787 -0.14924 0.169621 0.00666884 0.0342118 0.0572585 0.327424 -0.283937 7.717 0.15506 -0.126462 0.0528742 0.860997 0.189235 0.660809 1.1333 0.378781 -0.00292676 0.422063 7.72849 -0.165655 0.271614 0.41395 0.197138 0.343073 0.329024 0.0124501 0.979842 0.321076 0.389843 7.71788 0.151863 0.275718 -0.304783 0.86004 0.189957 -0.144639 0.052482 0.976829 -0.1607 0.387772 0.146727 0.0229129 0.0565958 0.154161 -0.00168761 0.514747 1.05036 0.190273 -0.0811701 0.342094 7.7815 -0.234956 0.247901 0.208126 0.0817659 0.0101873 0.0543545 -0.0968816 0.94175 0.0475337 0.196388 7.79192 0.372098 0.238487 -0.299389 1.06876 0.43759 -0.144583 0.168175 0.942075 -0.120594 0.200059 0.0626393 0.0523177 0.177919 0.0655083 -0.00139054 
SCALARS u_post double 1
LOOKUP_TABLE default
0.330572 0.19978 0.238783 0.099707 0.200899 -0.00134279 0.10003 -0.000783795 0.240117 0.0991753 -0.0017246 5.13346e-05 0.0996089 3.70876e-05 0.000360908 6.00465e-07 0.685702 1.67892 0.577026 0.635548 1.14654 4.98303 1.18586 1.05543 0.631429 0.592497 0.488953 0.523243 0.629961 1.60251 0.474106 0.503068 4.97215 1.00588 1.06521 1.07593 1.54387 0.442032 0.52277 0.351685 1.60729 0.520897 0.501134 0.383585 0.48168 0.403699 0.432963 0.314176 0.490892 0.520629 0.421768 0.446599 0.468811 0.508773 0.486981 1.46952 0.366899 0.491516 0.307785 1.38762 1.04241 0.919361 0.847719 4.77507 0.503832 0.380918 1.47601 0.430966 0.43567 0.302808 0.388602 0.33242 0.938164 0.983894 4.75328 0.826528 0.424463 0.301833 1.37277 0.216281 0.540784 0.513398 0.657903 0.585421 0.46026 0.473737 0.629119 1.57179 0.601383 0.628236 0.691618 1.673 1.18063 1.0308 1.12539 5.00503 0.471499 0.3941 1.57787 0.532504 0.449158 0.385031 0.487568 0.428825 1.03808 1.08348 4.99418 0.986892 0.528128 0.377044 1.53719 0.446939 0.383162 0.390276 0.431345 0.377611 0.335681 0.311094 0.420563 1.35233 0.382321 0.415148 0.441188 1.42472 0.970839 0.820102 0.877725 4.70052 0.316439 0.10996 1.34628 0.210069 0.165374 -0.0229081 0.167276 0.0412533 0.798533 0.762413 4.72275 0.656343 0.207738 -0.000935095 1.20051 -0.0057797 0.439239 1.42935 0.354855 0.382546 0.887206 4.69001 0.937469 0.75835 0.407041 0.341691 0.304186 0.309676 0.379227 1.30116 0.275512 0.177657 4.7122 0.663184 0.739204 0.753605 1.20564 -0.00632208 0.199191 0.000640909 1.29442 0.193195 0.182764 0.107932 0.15589 0.0433713 0.143584 -0.0336082 0.310386 1.38153 0.138395 0.255729 0.840505 4.78633 0.806757 0.716243 0.193252 0.212074 -0.0257501 0.0413997 0.250317 1.26772 0.00395396 -0.00737924 4.76444 0.816891 0.737506 0.7869 1.36775 0.218744 0.227577 0.136787 1.27348 0.233801 -0.013036 0.00362606 0.192829 0.168221 0.0465688 -0.0377412 
