# vtk DataFile Version 3.0
#This file was generated by the deal.II library on 2020/8/22 at 21:53:44
ASCII
DATASET UNSTRUCTURED_GRID

POINTS 42272 double
0.5 0.5 0
0.5 1 0
1 0.5 0
1 1 0
0.5 0.5 0
1 0.5 0
0.5 1 0
1 1 0
0 0 0
0 0.25 0
0.25 0 0
0.25 0.25 0
0 0 0
0.25 0 0
0 0.25 0
0.25 0.25 0
0.25 0.25 0
0.25 0.5 0
0.5 0.25 0
0.5 0.5 0
0.25 0.25 0
0.5 0.25 0
0.25 0.5 0
0.5 0.5 0
0.75 0 0
0.75 0.25 0
1 0 0
1 0.25 0
0.75 0 0
1 0 0
0.75 0.25 0
1 0.25 0
0.5 0.25 0
0.5 0.5 0
0.75 0.25 0
0.75 0.5 0
0.5 0.25 0
0.75 0.25 0
0.5 0.5 0
0.75 0.5 0
0.75 0.25 0
0.75 0.5 0
1 0.25 0
1 0.5 0
0.75 0.25 0
1 0.25 0
0.75 0.5 0
1 0.5 0
0.25 0.5 0
0.25 0.75 0
0.5 0.5 0
0.5 0.75 0
0.25 0.5 0
0.5 0.5 0
0.25 0.75 0
0.5 0.75 0
0 0.75 0
0 1 0
0.25 0.75 0
0.25 1 0
0 0.75 0
0.25 0.75 0
0 1 0
0.25 1 0
0.25 0.75 0
0.25 1 0
0.5 0.75 0
0.5 1 0
0.25 0.75 0
0.5 0.75 0
0.25 1 0
0.5 1 0
-1 -0.25 0
-1 -0.125 0
-0.875 -0.25 0
-0.875 -0.125 0
-1 -0.25 0
-0.875 -0.25 0
-1 -0.125 0
-0.875 -0.125 0
-1 -0.125 0
-1 0 0
-0.875 -0.125 0
-0.875 0 0
-1 -0.125 0
-0.875 -0.125 0
-1 0 0
-0.875 0 0
-0.875 -0.125 0
-0.875 0 0
-0.75 -0.125 0
-0.75 0 0
-0.875 -0.125 0
-0.75 -0.125 0
-0.875 0 0
-0.75 0 0
-0.125 -0.25 0
-0.125 -0.125 0
0 -0.25 0
0 -0.125 0
-0.125 -0.25 0
0 -0.25 0
-0.125 -0.125 0
0 -0.125 0
-0.25 -0.125 0
-0.25 0 0
-0.125 -0.125 0
-0.125 0 0
-0.25 -0.125 0
-0.125 -0.125 0
-0.25 0 0
-0.125 0 0
-0.125 -0.125 0
-0.125 0 0
0 -0.125 0
0 0 0
-0.125 -0.125 0
0 -0.125 0
-0.125 0 0
0 0 0
-1 0 0
-1 0.125 0
-0.875 0 0
-0.875 0.125 0
-1 0 0
-0.875 0 0
-1 0.125 0
-0.875 0.125 0
-0.875 0 0
-0.875 0.125 0
-0.75 0 0
-0.75 0.125 0
-0.875 0 0
-0.75 0 0
-0.875 0.125 0
-0.75 0.125 0
-1 0.125 0
-1 0.25 0
-0.875 0.125 0
-0.875 0.25 0
-1 0.125 0
-0.875 0.125 0
-1 0.25 0
-0.875 0.25 0
-0.25 0 0
-0.25 0.125 0
-0.125 0 0
-0.125 0.125 0
-0.25 0 0
-0.125 0 0
-0.25 0.125 0
-0.125 0.125 0
-0.125 0 0
-0.125 0.125 0
0 0 0
0 0.125 0
-0.125 0 0
0 0 0
-0.125 0.125 0
0 0.125 0
-0.125 0.125 0
-0.125 0.25 0
0 0.125 0
0 0.25 0
-0.125 0.125 0
0 0.125 0
-0.125 0.25 0
0 0.25 0
-1 -1 0
-1 -0.875 0
-0.875 -1 0
-0.875 -0.875 0
-1 -1 0
-0.875 -1 0
-1 -0.875 0
-0.875 -0.875 0
-0.875 -1 0
-0.875 -0.875 0
-0.75 -1 0
-0.75 -0.875 0
-0.875 -1 0
-0.75 -1 0
-0.875 -0.875 0
-0.75 -0.875 0
-1 -0.875 0
-1 -0.75 0
-0.875 -0.875 0
-0.875 -0.75 0
-1 -0.875 0
-0.875 -0.875 0
-1 -0.75 0
-0.875 -0.75 0
-0.25 -1 0
-0.25 -0.875 0
-0.125 -1 0
-0.125 -0.875 0
-0.25 -1 0
-0.125 -1 0
-0.25 -0.875 0
-0.125 -0.875 0
-0.125 -1 0
-0.125 -0.875 0
0 -1 0
0 -0.875 0
-0.125 -1 0
0 -1 0
-0.125 -0.875 0
0 -0.875 0
-0.125 -0.875 0
-0.125 -0.75 0
0 -0.875 0
0 -0.75 0
-0.125 -0.875 0
0 -0.875 0
-0.125 -0.75 0
0 -0.75 0
0 -1 0
0 -0.875 0
0.125 -1 0
0.125 -0.875 0
0 -1 0
0.125 -1 0
0 -0.875 0
0.125 -0.875 0
0.125 -1 0
0.125 -0.875 0
0.25 -1 0
0.25 -0.875 0
0.125 -1 0
0.25 -1 0
0.125 -0.875 0
0.25 -0.875 0
0 -0.875 0
0 -0.75 0
0.125 -0.875 0
0.125 -0.75 0
0 -0.875 0
0.125 -0.875 0
0 -0.75 0
0.125 -0.75 0
0.75 -1 0
0.75 -0.875 0
0.875 -1 0
0.875 -0.875 0
0.75 -1 0
0.875 -1 0
0.75 -0.875 0
0.875 -0.875 0
0.875 -1 0
0.875 -0.875 0
1 -1 0
1 -0.875 0
0.875 -1 0
1 -1 0
0.875 -0.875 0
1 -0.875 0
0.875 -0.875 0
0.875 -0.75 0
1 -0.875 0
1 -0.75 0
0.875 -0.875 0
1 -0.875 0
0.875 -0.75 0
1 -0.75 0
0 -0.25 0
0 -0.125 0
0.125 -0.25 0
0.125 -0.125 0
0 -0.25 0
0.125 -0.25 0
0 -0.125 0
0.125 -0.125 0
0 -0.125 0
0 0 0
0.125 -0.125 0
0.125 0 0
0 -0.125 0
0.125 -0.125 0
0 0 0
0.125 0 0
0.125 -0.125 0
0.125 0 0
0.25 -0.125 0
0.25 0 0
0.125 -0.125 0
0.25 -0.125 0
0.125 0 0
0.25 0 0
0.875 -0.25 0
0.875 -0.125 0
1 -0.25 0
1 -0.125 0
0.875 -0.25 0
1 -0.25 0
0.875 -0.125 0
1 -0.125 0
0.75 -0.125 0
0.75 0 0
0.875 -0.125 0
0.875 0 0
0.75 -0.125 0
0.875 -0.125 0
0.75 0 0
0.875 0 0
0.875 -0.125 0
0.875 0 0
1 -0.125 0
1 0 0
0.875 -0.125 0
1 -0.125 0
0.875 0 0
1 0 0
-1 0.75 0
-1 0.875 0
-0.875 0.75 0
-0.875 0.875 0
-1 0.75 0
-0.875 0.75 0
-1 0.875 0
-0.875 0.875 0
-1 0.875 0
-1 1 0
-0.875 0.875 0
-0.875 1 0
-1 0.875 0
-0.875 0.875 0
-1 1 0
-0.875 1 0
-0.875 0.875 0
-0.875 1 0
-0.75 0.875 0
-0.75 1 0
-0.875 0.875 0
-0.75 0.875 0
-0.875 1 0
-0.75 1 0
-0.125 0.75 0
-0.125 0.875 0
0 0.75 0
0 0.875 0
-0.125 0.75 0
0 0.75 0
-0.125 0.875 0
0 0.875 0
-0.25 0.875 0
-0.25 1 0
-0.125 0.875 0
-0.125 1 0
-0.25 0.875 0
-0.125 0.875 0
-0.25 1 0
-0.125 1 0
-0.125 0.875 0
-0.125 1 0
0 0.875 0
0 1 0
-0.125 0.875 0
0 0.875 0
-0.125 1 0
0 1 0
0.25 0 0
0.25 0.125 0
0.375 0 0
0.375 0.125 0
0.25 0 0
0.375 0 0
0.25 0.125 0
0.375 0.125 0
0.375 0 0
0.375 0.125 0
0.5 0 0
0.5 0.125 0
0.375 0 0
0.5 0 0
0.375 0.125 0
0.5 0.125 0
0.25 0.125 0
0.25 0.25 0
0.375 0.125 0
0.375 0.25 0
0.25 0.125 0
0.375 0.125 0
0.25 0.25 0
0.375 0.25 0
0.375 0.125 0
0.375 0.25 0
0.5 0.125 0
0.5 0.25 0
0.375 0.125 0
0.5 0.125 0
0.375 0.25 0
0.5 0.25 0
0 0.25 0
0 0.375 0
0.125 0.25 0
0.125 0.375 0
0 0.25 0
0.125 0.25 0
0 0.375 0
0.125 0.375 0
0.125 0.25 0
0.125 0.375 0
0.25 0.25 0
0.25 0.375 0
0.125 0.25 0
0.25 0.25 0
0.125 0.375 0
0.25 0.375 0
0 0.375 0
0 0.5 0
0.125 0.375 0
0.125 0.5 0
0 0.375 0
0.125 0.375 0
0 0.5 0
0.125 0.5 0
0.125 0.375 0
0.125 0.5 0
0.25 0.375 0
0.25 0.5 0
0.125 0.375 0
0.25 0.375 0
0.125 0.5 0
0.25 0.5 0
0.5 0 0
0.5 0.125 0
0.625 0 0
0.625 0.125 0
0.5 0 0
0.625 0 0
0.5 0.125 0
0.625 0.125 0
0.625 0 0
0.625 0.125 0
0.75 0 0
0.75 0.125 0
0.625 0 0
0.75 0 0
0.625 0.125 0
0.75 0.125 0
0.5 0.125 0
0.5 0.25 0
0.625 0.125 0
0.625 0.25 0
0.5 0.125 0
0.625 0.125 0
0.5 0.25 0
0.625 0.25 0
0.625 0.125 0
0.625 0.25 0
0.75 0.125 0
0.75 0.25 0
0.625 0.125 0
0.75 0.125 0
0.625 0.25 0
0.75 0.25 0
0 0.5 0
0 0.625 0
0.125 0.5 0
0.125 0.625 0
0 0.5 0
0.125 0.5 0
0 0.625 0
0.125 0.625 0
0.125 0.5 0
0.125 0.625 0
0.25 0.5 0
0.25 0.625 0
0.125 0.5 0
0.25 0.5 0
0.125 0.625 0
0.25 0.625 0
0 0.625 0
0 0.75 0
0.125 0.625 0
0.125 0.75 0
0 0.625 0
0.125 0.625 0
0 0.75 0
0.125 0.75 0
0.125 0.625 0
0.125 0.75 0
0.25 0.625 0
0.25 0.75 0
0.125 0.625 0
0.25 0.625 0
0.125 0.75 0
0.25 0.75 0
-1 -0.5 0
-1 -0.4375 0
-0.9375 -0.5 0
-0.9375 -0.4375 0
-1 -0.5 0
-0.9375 -0.5 0
-1 -0.4375 0
-0.9375 -0.4375 0
-1 -0.4375 0
-1 -0.375 0
-0.9375 -0.4375 0
-0.9375 -0.375 0
-1 -0.4375 0
-0.9375 -0.4375 0
-1 -0.375 0
-0.9375 -0.375 0
-0.0625 -0.5 0
-0.0625 -0.4375 0
0 -0.5 0
0 -0.4375 0
-0.0625 -0.5 0
0 -0.5 0
-0.0625 -0.4375 0
0 -0.4375 0
-0.0625 -0.4375 0
-0.0625 -0.375 0
0 -0.4375 0
0 -0.375 0
-0.0625 -0.4375 0
0 -0.4375 0
-0.0625 -0.375 0
0 -0.375 0
-0.5 0 0
-0.5 0.0625 0
-0.4375 0 0
-0.4375 0.0625 0
-0.5 0 0
-0.4375 0 0
-0.5 0.0625 0
-0.4375 0.0625 0
-0.4375 0 0
-0.4375 0.0625 0
-0.375 0 0
-0.375 0.0625 0
-0.4375 0 0
-0.375 0 0
-0.4375 0.0625 0
-0.375 0.0625 0
-0.625 -0.0625 0
-0.625 0 0
-0.5625 -0.0625 0
-0.5625 0 0
-0.625 -0.0625 0
-0.5625 -0.0625 0
-0.625 0 0
-0.5625 0 0
-0.5625 -0.0625 0
-0.5625 0 0
-0.5 -0.0625 0
-0.5 0 0
-0.5625 -0.0625 0
-0.5 -0.0625 0
-0.5625 0 0
-0.5 0 0
-0.5 -0.0625 0
-0.5 0 0
-0.4375 -0.0625 0
-0.4375 0 0
-0.5 -0.0625 0
-0.4375 -0.0625 0
-0.5 0 0
-0.4375 0 0
-0.4375 -0.0625 0
-0.4375 0 0
-0.375 -0.0625 0
-0.375 0 0
-0.4375 -0.0625 0
-0.375 -0.0625 0
-0.4375 0 0
-0.375 0 0
-1 0.375 0
-1 0.4375 0
-0.9375 0.375 0
-0.9375 0.4375 0
-1 0.375 0
-0.9375 0.375 0
-1 0.4375 0
-0.9375 0.4375 0
-1 0.4375 0
-1 0.5 0
-0.9375 0.4375 0
-0.9375 0.5 0
-1 0.4375 0
-0.9375 0.4375 0
-1 0.5 0
-0.9375 0.5 0
-0.0625 0.375 0
-0.0625 0.4375 0
0 0.375 0
0 0.4375 0
-0.0625 0.375 0
0 0.375 0
-0.0625 0.4375 0
0 0.4375 0
-0.0625 0.4375 0
-0.0625 0.5 0
0 0.4375 0
0 0.5 0
-0.0625 0.4375 0
0 0.4375 0
-0.0625 0.5 0
0 0.5 0
-0.625 -1 0
-0.625 -0.9375 0
-0.5625 -1 0
-0.5625 -0.9375 0
-0.625 -1 0
-0.5625 -1 0
-0.625 -0.9375 0
-0.5625 -0.9375 0
-0.5625 -1 0
-0.5625 -0.9375 0
-0.5 -1 0
-0.5 -0.9375 0
-0.5625 -1 0
-0.5 -1 0
-0.5625 -0.9375 0
-0.5 -0.9375 0
-0.5 -1 0
-0.5 -0.9375 0
-0.4375 -1 0
-0.4375 -0.9375 0
-0.5 -1 0
-0.4375 -1 0
-0.5 -0.9375 0
-0.4375 -0.9375 0
-0.4375 -1 0
-0.4375 -0.9375 0
-0.375 -1 0
-0.375 -0.9375 0
-0.4375 -1 0
-0.375 -1 0
-0.4375 -0.9375 0
-0.375 -0.9375 0
0.375 -1 0
0.375 -0.9375 0
0.4375 -1 0
0.4375 -0.9375 0
0.375 -1 0
0.4375 -1 0
0.375 -0.9375 0
0.4375 -0.9375 0
0.4375 -1 0
0.4375 -0.9375 0
0.5 -1 0
0.5 -0.9375 0
0.4375 -1 0
0.5 -1 0
0.4375 -0.9375 0
0.5 -0.9375 0
0 -0.625 0
0 -0.5625 0
0.0625 -0.625 0
0.0625 -0.5625 0
0 -0.625 0
0.0625 -0.625 0
0 -0.5625 0
0.0625 -0.5625 0
0 -0.5625 0
0 -0.5 0
0.0625 -0.5625 0
0.0625 -0.5 0
0 -0.5625 0
0.0625 -0.5625 0
0 -0.5 0
0.0625 -0.5 0
0.9375 -0.625 0
0.9375 -0.5625 0
1 -0.625 0
1 -0.5625 0
0.9375 -0.625 0
1 -0.625 0
0.9375 -0.5625 0
1 -0.5625 0
0.9375 -0.5625 0
0.9375 -0.5 0
1 -0.5625 0
1 -0.5 0
0.9375 -0.5625 0
1 -0.5625 0
0.9375 -0.5 0
1 -0.5 0
0 -0.5 0
0 -0.4375 0
0.0625 -0.5 0
0.0625 -0.4375 0
0 -0.5 0
0.0625 -0.5 0
0 -0.4375 0
0.0625 -0.4375 0
0 -0.4375 0
0 -0.375 0
0.0625 -0.4375 0
0.0625 -0.375 0
0 -0.4375 0
0.0625 -0.4375 0
0 -0.375 0
0.0625 -0.375 0
0.375 -0.0625 0
0.375 0 0
0.4375 -0.0625 0
0.4375 0 0
0.375 -0.0625 0
0.4375 -0.0625 0
0.375 0 0
0.4375 0 0
0.4375 -0.0625 0
0.4375 0 0
0.5 -0.0625 0
0.5 0 0
0.4375 -0.0625 0
0.5 -0.0625 0
0.4375 0 0
0.5 0 0
0.9375 -0.5 0
0.9375 -0.4375 0
1 -0.5 0
1 -0.4375 0
0.9375 -0.5 0
1 -0.5 0
0.9375 -0.4375 0
1 -0.4375 0
0.9375 -0.4375 0
0.9375 -0.375 0
1 -0.4375 0
1 -0.375 0
0.9375 -0.4375 0
1 -0.4375 0
0.9375 -0.375 0
1 -0.375 0
0.5 -0.0625 0
0.5 0 0
0.5625 -0.0625 0
0.5625 0 0
0.5 -0.0625 0
0.5625 -0.0625 0
0.5 0 0
0.5625 0 0
0.5625 -0.0625 0
0.5625 0 0
0.625 -0.0625 0
0.625 0 0
0.5625 -0.0625 0
0.625 -0.0625 0
0.5625 0 0
0.625 0 0
-1 0.5 0
-1 0.5625 0
-0.9375 0.5 0
-0.9375 0.5625 0
-1 0.5 0
-0.9375 0.5 0
-1 0.5625 0
-0.9375 0.5625 0
-1 0.5625 0
-1 0.625 0
-0.9375 0.5625 0
-0.9375 0.625 0
-1 0.5625 0
-0.9375 0.5625 0
-1 0.625 0
-0.9375 0.625 0
-0.625 0.9375 0
-0.625 1 0
-0.5625 0.9375 0
-0.5625 1 0
-0.625 0.9375 0
-0.5625 0.9375 0
-0.625 1 0
-0.5625 1 0
-0.5625 0.9375 0
-0.5625 1 0
-0.5 0.9375 0
-0.5 1 0
-0.5625 0.9375 0
-0.5 0.9375 0
-0.5625 1 0
-0.5 1 0
-0.0625 0.5 0
-0.0625 0.5625 0
0 0.5 0
0 0.5625 0
-0.0625 0.5 0
0 0.5 0
-0.0625 0.5625 0
0 0.5625 0
-0.0625 0.5625 0
-0.0625 0.625 0
0 0.5625 0
0 0.625 0
-0.0625 0.5625 0
0 0.5625 0
[...]
POINT_DATA 42272
SCALARS u_hat double 1
LOOKUP_TABLE default
0.000103618 2.67399e-06 5.59588e-16 -1.49941e-16 0.000100547 2.91226e-06 5.59588e-16 -1.49941e-16 0.000833562 0.00106539 0.000856267 0.000382947 0.000835162 0.00104048 0.000890651 0.000381461 0.000382565 0.000107856 0.000152272 0.000104068 0.00038201 8.65641e-05 0.00016913 0.000103934 0.000535 0.000226967 5.02742e-06 -1.29564e-06 0.000738656 0.000174676 -2.48602e-05 6.30612e-05 0.000152272 0.000104068 7.35837e-05 5.26558e-05 8.0657e-05 0.000179472 0.000100547 5.17296e-05 7.35837e-05 5.26558e-05 1.05362e-09 -2.80547e-10 -2.48602e-05 6.30612e-05 5.17296e-05 2.91226e-06 0.000102292 0.00019567 0.000103618 5.31458e-05 0.00016913 0.000103934 8.65618e-05 5.40835e-05 0.000778799 0.000190528 -1.82044e-05 7.14013e-05 0.00059347 0.000232325 5.02742e-06 -1.29564e-06 -1.82044e-05 7.14013e-05 5.31458e-05 2.67399e-06 8.65618e-05 5.40835e-05 1.05362e-09 -2.80547e-10 -0.000418095 0.00146445 0.0219276 0.00274336 0.00150537 0.0174439 0.00252029 0.000529202 6.85083e-05 0.00143052 0.000999498 0.00215068 0.00252029 0.000529202 0.00169792 -9.86813e-05 0.000999498 0.00215068 0.0178326 0.00212058 0.00279711 0.0217964 0.00159153 0.00112074 0.0218433 0.00288576 0.00112757 0.0017066 0.0176844 0.00234363 0.000825466 0.002442 0.0176867 0.00235213 0.000827268 0.00244662 0.0218567 0.00288397 0.00113241 0.00171 0.000827268 0.00244662 1.49209e-05 0.00168099 0.000825466 0.002442 1.81357e-05 0.0016816 0.00143355 1.73102e-05 0.00213264 0.000986327 0.00169792 -9.86813e-05 0.00241554 0.000552122 0.00213264 0.000986327 0.00210842 0.0178116 0.00159153 0.00112074 0.00276411 0.0217623 0.00133843 -0.000417448 0.0027034 0.0218853 0.00241554 0.000552122 0.00142749 0.0173943 0.00234115 0.0177593 0.00233474 0.001055 0.00113241 0.00171 0.0219155 0.00298641 0.00233474 0.001055 0.000833562 0.000949476 1.81357e-05 0.0016816 0.000735811 0.00278885 0.00292942 0.0221271 0.000949476 0.00106539 0.000735811 0.00278885 0.0178012 0.00170708 0.00155304 -0.000127283 0.00217058 0.000738473 0.00139034 -1.7371e-05 0.00215838 0.000780663 0.00217058 0.000738473 0.00120102 0.0175947 0.00128679 -0.000368184 0.00264626 0.0218297 0.00136698 -0.000368753 0.00264405 0.0218978 0.00215838 0.000780663 0.00130436 0.0176274 0.00143928 0.0174059 0.00240395 0.000541082 -0.000406183 0.00132711 0.0218962 0.00269211 0.00240395 0.000541082 0.0016645 -0.000130034 5.61493e-06 0.00140083 0.000974852 0.00210158 0.00275302 0.0217515 0.00155999 0.00109368 0.000974852 0.00210158 0.0178004 0.00208152 0.0016645 -0.000130034 0.00246392 0.000477278 0.00139744 1.32845e-05 0.00211928 0.000947992 0.00246392 0.000477278 0.00142226 0.0173687 0.00140879 -0.000499506 0.0026916 0.0218536 0.00155999 0.00109368 0.00274497 0.0217527 0.00211928 0.000947992 0.0020937 0.0177894 0.00100361 0.0174045 0.00163033 0.000603825 -0.000652519 0.00095938 0.0216777 0.00234008 0.00163033 0.000603825 -1.15266e-05 0.000176479 -0.000579674 0.000746608 0.000517073 0.00193918 0.00228338 0.0217578 8.6761e-05 0.00141873 0.000517073 0.00193918 0.0176141 0.000926118 0.00112757 0.0017066 0.0219189 0.00297559 0.00233916 0.0177511 0.00233252 0.0010496 1.49209e-05 0.00168099 0.000725465 0.00277716 0.00233252 0.0010496 0.000835162 0.000937823 0.000725465 0.00277716 0.017786 0.0016748 0.00292049 0.022103 0.000937823 0.00104048 0.0218923 0.00243516 0.00141873 8.6761e-05 0.0175292 0.00107754 0.00058104 0.00201799 0.0177492 0.00117316 0.000737258 0.00199218 0.0218558 0.00251047 0.000738656 0.000456666 0.000737258 0.00199218 0.000176479 -1.15266e-05 0.00058104 0.00201799 0.000456666 0.000174676 -0.000563365 0.00096193 0.0216535 0.00235282 0.000992929 0.0174121 0.00171974 0.000566003 -0.000401926 0.000616514 0.000573896 0.00188463 0.00171974 0.000566003 -1.15266e-05 0.000176479 0.000573896 0.00188463 0.0176333 0.000937458 0.00228732 0.0217879 8.6761e-05 0.00141873 0.0218809 0.0025436 0.000778799 0.000484664 0.0177707 0.00123177 0.000742235 0.00203504 0.0175201 0.00107742 0.000527117 0.00209604 0.0218694 0.00247069 0.00141873 8.6761e-05 0.000527117 0.00209604 0.000484664 0.000190528 0.000742235 0.00203504 0.000176479 -1.15266e-05 0.000856267 0.000619607 0.000315374 0.00357905 0.00244145 0.00555759 0.000350394 0.000378193 0.000315374 0.00357905 0.000485504 0.00458533 0.00599051 0.00876685 0.000299311 0.000321441 0.000619607 0.000382947 0.000116186 0.000350303 0.000350394 0.000378193 0.00038201 0.000234287 0.000116186 0.000350303 -1.46059e-05 0.00031009 0.000299311 0.000321441 0.000234287 8.65641e-05 0.00247318 0.00560403 0.000370286 0.000412111 0.000890651 0.000636056 0.000377316 0.00360862 0.000370286 0.000412111 0.000382565 0.000245211 0.000636056 0.000381461 0.000147603 0.000362531 0.00604194 0.00882763 0.000333389 0.000367562 0.000377316 0.00360862 0.0005732 0.00461117 0.000333389 0.000367562 0.000245211 0.000107856 0.000147603 0.000362531 2.79652e-05 0.000328599 0.000485504 0.00458533 0.000284079 0.00335885 0.00876399 0.00584703 0.000322614 0.000190276 0.000284079 0.00335885 0.000535 0.000380984 0.00543596 0.00207532 0.000275897 0.000118796 -1.46059e-05 0.00031009 5.21459e-06 0.000244537 0.000322614 0.000190276 8.0657e-05 0.000130065 5.21459e-06 0.000244537 0.000380984 0.000226967 0.000275897 0.000118796 0.000130065 0.000179472 0.00882455 0.00591057 0.000368969 0.000228626 0.0005732 0.00461117 0.000378632 0.00337116 0.000368969 0.000228626 0.000102292 0.000148981 2.79652e-05 0.000328599 4.44552e-05 0.000264217 0.00549107 0.00212885 0.000314356 0.000152922 0.000378632 0.00337116 0.00059347 0.000412897 0.000314356 0.000152922 0.000148981 0.00019567 4.44552e-05 0.000264217 0.000412897 0.000232325 0.00818656 0.00724651 0.0342853 0.0309872 0.013803 0.0225639 0.0127841 0.0204193 0.00737579 0.0055271 0.0307288 0.0238743 0.0127841 0.0204193 0.00984481 0.0151226 0.0357746 0.0323158 0.0160893 0.0143209 0.0261075 0.0179396 0.0237351 0.0164595 0.0321157 0.0248305 0.0145523 0.010722 0.0237351 0.0164595 0.0177413 0.0124748 0.0179533 0.0261247 0.0164703 0.0237542 0.0161032 0.0143319 0.0357913 0.0323343 0.0164703 0.0237542 0.012483 0.0177642 0.0145633 0.0107306 0.0321342 0.0248524 0.0178428 0.0123238 0.0238107 0.0163731 0.0247652 0.0321187 0.0106837 0.0145578 0.0238107 0.0163731 0.0261066 0.0179668 0.0323077 0.0357847 0.014313 0.0161028 0.0261066 0.0179668 0.0237384 0.0164796 0.0357854 0.0323258 0.0161032 0.0143319 0.0237384 0.0164796 0.0177445 0.0124897 0.0321234 0.0248424 0.0145633 0.0107306 0.00537134 0.00721422 0.0238043 0.0305956 0.00957915 0.0151495 0.0125473 0.0203653 0.00709075 0.00799612 0.0308615 0.0341203 0.0125473 0.0203653 0.0136091 0.0224102 0.0241415 0.0309477 0.00604194 0.00743479 0.0154133 0.0100189 0.0207096 0.0130753 0.031206 0.0345878 0.00743479 0.00882763 0.0207096 0.0130753 0.0228317 0.0142152 0.00951002 0.0152504 0.0125241 0.0204733 0.00540171 0.00728092 0.0237341 0.0306496 0.0125241 0.0204733 0.0136829 0.0224854 0.00713998 0.0080723 0.0308941 0.0341963 0.0136829 0.0224854 0.0126026 0.0204215 0.00806949 0.00714583 0.0341952 0.0309173 0.0126026 0.0204215 0.00961818 0.0151891 0.00726915 0.00541027 0.0306515 0.0238436 0.00972885 0.0150112 0.0126484 0.0202893 0.00541168 0.00724068 0.0237631 0.0305989 0.0126484 0.0202893 0.0136453 0.0224135 0.00711134 0.00802966 0.0308574 0.0341351 0.0106629 0.0145407 0.0247406 0.032101 0.012303 0.0178186 0.0163557 0.0237932 0.0142958 0.0160889 0.03229 0.035774 0.0163557 0.0237932 0.0179527 0.0260962 0.0235115 0.0304529 0.00524082 0.00703472 0.0150361 0.00923034 0.0202902 0.0123362 0.0307178 0.034002 0.00707489 0.00780107 0.0202902 0.0123362 0.0223067 0.0134985 0.0160893 0.0143209 0.0357747 0.0323224 0.0179527 0.0260962 0.0164682 0.0237355 0.0145523 0.010722 0.0321201 0.0248473 0.0164682 0.0237355 0.0124804 0.0177503 0.0153798 0.00996556 0.020674 0.0130123 0.0241017 0.0309082 0.00599051 0.00737868 0.020674 0.0130123 0.0228014 0.0141451 0.0311649 0.0345486 0.00737868 0.00876685 0.0340017 0.0307453 0.00780107 0.00707489 0.0223067 0.0134985 0.020245 0.0124122 0.0304603 0.023625 0.00703472 0.00524082 0.020245 0.0124122 0.0149866 0.00932474 0.0228014 0.0141451 0.0207473 0.0127953 0.0345472 0.0310954 0.00876399 0.00730551 0.0207473 0.0127953 0.0154612 0.00960649 0.0308497 0.0239262 0.00730551 0.00584703 0.0079987 0.00704512 0.0341214 0.0307972 0.0136091 0.0224102 0.0124284 0.0203759 0.00718567 0.00528112 0.0305526 0.0236109 0.0124284 0.0203759 0.00938787 0.0151268 0.0151683 0.00913149 0.0203713 0.0122814 0.0235701 0.0304634 0.00524082 0.00703472 0.0203713 0.0122814 0.0223035 0.013508 0.0307375 0.0340057 0.00707489 0.00780107 0.0345867 0.0311384 0.00882455 0.00736756 0.0228317 0.0142152 0.0207784 0.0128707 0.0308922 0.0239658 0.00736756 0.00591057 0.0207784 0.0128707 0.0154846 0.00968302 0.0223035 0.013508 0.0201613 0.0124852 0.0340082 0.0307341 0.00780107 0.00707489 0.0201613 0.0124852 0.014842 0.00944981 0.0304572 0.0235792 0.00703472 0.00524082 0.0123063 0.0178582 0.0163583 0.0238247 0.0106837 0.0145578 0.0247626 0.0321218 0.0163583 0.0238247 0.0179533 0.0261247 0.014313 0.0161028 0.0323095 0.0357903 0.0055078 0.00738422 0.023868 0.0307398 0.00951899 0.0154527 0.012579 0.0206323 0.00724806 0.00818351 0.0309945 0.0342823 0.012579 0.0206323 0.013803 0.0225639 0.0247458 0.0321055 0.0106629 0.0145407 0.0178411 0.0122858 0.0238081 0.0163413 0.0322931 0.0357735 0.0142958 0.0160889 0.0238081 0.0163413 0.0261075 0.0179396 0.0136453 0.0224135 0.0123964 0.0204595 0.00802643 0.00706671 0.034132 0.0308219 0.0123964 0.0204595 0.0093073 0.0152548 0.00720253 0.00529829 0.0305671 0.0236699 0.00597267 0.00320595 0.0229391 0.0133821 0.00984481 0.0151226 0.00589562 0.00963381 0.0229391 0.0133821 0.081155 0.0488736 0.0218407 0.0712975 0.0180859 0.0396274 0.00387446 0.00275818 0.0140168 0.00728999 0.00589562 0.00963381 0.00150537 0.00947464 0.0140168 0.00728999 0.0485689 0.0240726 0.0180859 0.0396274 0.00947464 0.0174439 0.0813734 0.0489499 0.024118 0.0139041 0.0715097 0.0225967 0.0399112 0.0184639 0.024118 0.0139041 0.0113437 0.0062632 0.0177413 0.0124748 0.011368 0.00742664 0.0487351 0.0242082 0.0147218 0.00761984 0.0399112 0.0184639 0.0176844 0.010014 0.0147218 0.00761984 0.00705659 0.0041842 0.011368 0.00742664 0.010014 0.00234363 0.012483 0.0177642 0.00743257 0.0113978 0.0113523 0.00626986 0.0241402 0.0139322 0.00743257 0.0113978 0.00234115 0.0100502 0.00706326 0.00418941 0.0147498 0.0076562 0.0226189 0.0715441 0.0184907 0.0399604 0.0241402 0.0139322 0.0814069 0.0489969 0.0184907 0.0399604 0.0100502 0.0177593 0.0147498 0.0076562 0.0487829 0.0242747 0.0178326 0.00997657 0.0401589 0.0181692 0.0241573 0.0487192 0.00758969 0.0147097 0.0401589 0.0181692 0.0715956 0.0224701 0.0489089 0.081343 0.0138642 0.0240982 0.00997657 0.00212058 0.0114241 0.0072817 0.00758969 0.0147097 0.00402495 0.00697667 0.0114241 0.0072817 0.0178428 0.0123238 0.0138642 0.0240982 0.00621229 0.0113127 0.0714979 0.0226145 0.039908 0.018476 0.0813762 0.0489524 0.0241271 0.0139076 0.039908 0.018476 0.0176867 0.0100194 0.0487394 0.0242143 0.0147281 0.00762061 0.0177445 0.0124897 0.0113654 0.00743887 0.0241271 0.0139076 0.0113523 0.00626986 0.0113654 0.00743887 0.0100194 0.00235213 0.0147281 0.00762061 0.00706326 0.00418941 0.00270182 0.00375718 0.00722727 0.0139535 0.00142749 0.00941091 0.00564718 0.00972332 0.00722727 0.0139535 0.0240022 0.0484963 0.00941091 0.0173943 0.0180224 0.039528 0.00311714 0.00580605 0.0133183 0.0228469 0.00564718 0.00972332 0.00957915 0.0151495 0.0133183 0.0228469 0.0487983 0.0810513 0.0180224 0.039528 0.0217921 0.0711651 0.0243199 0.0488004 0.00751317 0.0143404 0.0178012 0.00975414 0.039843 0.0183532 0.00751317 0.0143404 0.00247318 0.00403861 0.00975414 0.00170708 0.00992203 0.0059756 0.0490661 0.0813751 0.0136623 0.023106 0.039843 0.0183532 0.0714572 0.0221004 0.0136623 0.023106 0.00403861 0.00560403 0.00992203 0.0059756 0.0154133 0.0100189 0.00120102 0.00939786 0.00558679 0.0097462 0.00253101 0.00372751 0.00723198 0.013954 0.00558679 0.0097462 0.00951002 0.0152504 0.00311566 0.00584236 0.013301 0.0228413 0.00939786 0.0175947 0.017719 0.0398542 0.00723198 0.013954 0.0239895 0.0485162 0.017719 0.0398542 0.0216273 0.0713615 0.013301 0.0228413 0.0487977 0.0810723 0.00961818 0.0151891 0.00567187 0.00974822 0.00584484 0.00314175 0.0228861 0.0133431 0.00567187 0.00974822 0.00143928 0.00942257 0.00378166 0.0027135 0.0139781 0.00723895 0.0218317 0.0712041 0.0180472 0.0395524 0.0228861 0.0133431 0.08109 0.0488225 0.0180472 0.0395524 0.00942257 0.0174059 0.0139781 0.00723895 0.0485205 0.0240134 0.00142226 0.00939547 0.00579728 0.0095393 0.00267598 0.00377674 0.00721053 0.0139226 0.00579728 0.0095393 0.00972885 0.0150112 0.00310824 0.00585721 0.0132879 0.0228278 0.00939547 0.0173687 0.0179914 0.0395387 0.00721053 0.0139226 0.0239982 0.048481 0.0179914 0.0395387 0.0217292 0.0711928 0.0132879 0.0228278 0.0487856 0.0810505 0.00399802 0.00695257 0.0075549 0.014679 0.0020937 0.00994153 0.0072576 0.0113939 0.0075549 0.014679 0.0241144 0.0486805 0.00994153 0.0177894 0.0181387 0.0401216 0.00618815 0.0112922 0.0138336 0.0240739 0.0072576 0.0113939 0.012303 0.0178186 0.0138336 0.0240739 0.0488705 0.081314 0.0181387 0.0401216 0.0224456 0.0715669 0.0238787 0.0483677 0.00706932 0.0137795 0.0176141 0.00927011 0.0396998 0.0174918 0.00706932 0.0137795 0.00155589 0.00314062 0.00927011 0.000926118 0.00946601 0.00509628 0.048638 0.0808791 0.013099 0.0225234 0.0396998 0.0174918 0.0711714 0.0213929 0.013099 0.0225234 0.00316574 0.00519305 0.00946601 0.00509628 0.0150361 0.00923034 0.0113437 0.0062632 0.0241321 0.0139223 0.0124804 0.0177503 0.00743135 0.0113819 0.0241321 0.0139223 0.0813929 0.0489862 0.0226194 0.0715155 0.0184894 0.039944 0.00705659 0.0041842 0.0147427 0.00764656 0.00743135 0.0113819 0.00233916 0.0100451 0.0147427 0.00764656 0.0487741 0.0242702 0.0184894 0.039944 0.0100451 0.0177511 0.017786 0.0097304 0.0398282 0.0183179 0.0243002 0.0487788 0.00749316 0.0143104 0.0398282 0.0183179 0.0714495 0.0220544 0.0490473 0.0813513 0.0136386 0.0230634 0.0097304 0.0016748 0.00990047 0.00593035 0.00749316 0.0143104 0.00244145 0.00399952 0.00990047 0.00593035 0.0153798 0.00996556 0.0136386 0.0230634 0.00399952 0.00555759 0.0809242 0.0487081 0.022574 0.0131368 0.0710416 0.0215997 0.0394508 0.0178204 0.022574 0.0131368 0.00519305 0.00316574 0.0149866 0.00932474 0.00946784 0.00512207 0.04842 0.0239746 0.0138114 0.00709243 0.0394508 0.0178204 0.0175292 0.00930338 0.0138114 0.00709243 0.00314062 0.00155589 0.00946784 0.00512207 0.00930338 0.00107754 0.0714488 0.0218085 0.0399354 0.0178418 0.0812167 0.0488562 0.0229356 0.0134372 0.0399354 0.0178418 0.0177492 0.0094612 0.0486126 0.0240444 0.0141297 0.00723829 0.0154612 0.00960649 0.0098927 0.00552742 0.0229356 0.0134372 0.00543596 0.00375564 0.0098927 0.00552742 0.0094612 0.00117316 0.0141297 0.00723829 0.00375564 0.00207532 0.00572083 0.00296301 0.0227176 0.0131461 0.00938787 0.0151268 0.0054302 0.00959123 0.0227176 0.0131461 0.0809505 0.0486468 0.0215033 0.0712394 0.0175619 0.0397031 0.00357201 0.00233348 0.0137981 0.00703685 0.0054302 0.00959123 0.000992929 0.00920253 0.0137981 0.00703685 0.0483656 0.0238049 0.0175619 0.0397031 0.00920253 0.0174121 0.0176333 0.0092854 0.039685 0.0175386 0.023889 0.0483817 0.00708736 0.0138108 0.039685 0.0175386 0.0711236 0.0214807 0.0486463 0.080886 0.0131179 0.0225714 0.0092854 0.000937458 0.0096059 0.00499646 0.00708736 0.0138108 0.00155589 0.00314062 0.0096059 0.00499646 0.0151683 0.00913149 0.0131179 0.0225714 0.00316574 0.00519305 0.0812481 0.0488776 0.0229865 0.0134632 0.0714649 0.0218533 0.0399595 0.0178837 0.0229865 0.0134632 0.00549107 0.00380996 0.0154846 0.00968302 0.00989579 0.00560911 0.0486372 0.0240762 0.014166 0.00727241 0.0399595 0.0178837 0.0177707 0.00950125 0.014166 0.00727241 0.00380996 0.00212885 0.00989579 0.00560911 0.00950125 0.00123177 0.0710773 0.0215346 0.0394699 0.0177946 0.0809311 0.0487059 0.0225473 0.0131152 0.0394699 0.0177946 0.0175201 0.00929876 0.0484159 0.0239845 0.0137898 0.00707934 0.014842 0.00944981 0.00928574 0.00526953 0.0225473 0.0131152 0.00519305 0.00316574 0.00928574 0.00526953 0.00929876 0.00107742 0.0137898 0.00707934 0.00314062 0.00155589 0.00210842 0.00996001 0.00725877 0.0114493 0.00402495 0.00697667 0.00758168 0.0147034 0.00725877 0.0114493 0.0123063 0.0178582 0.00621229 0.0113127 0.0138624 0.0240947 0.00996001 0.0178116 0.0181576 0.0401468 0.00758168 0.0147034 0.0241274 0.0487041 0.0181576 0.0401468 0.0224635 0.0716008 0.0138624 0.0240947 0.0488956 0.081335 0.0026816 0.00383299 0.0072886 0.0140503 0.00130436 0.00946586 0.00559102 0.00995223 0.0072886 0.0140503 0.0240244 0.0485667 0.00946586 0.0176274 0.0178271 0.0398735 0.0032003 0.00595667 0.0133876 0.0229619 0.00559102 0.00995223 0.00951899 0.0154527 0.0133876 0.0229619 0.0488422 0.081126 0.0178271 0.0398735 0.0217889 0.0713605 0.0241165 0.0486929 0.00756258 0.0146856 0.0178004 0.00994098 0.0401353 0.0181398 0.00756258 0.0146856 0.00399802 0.00695257 0.00994098 0.00208152 0.0114313 0.00723486 0.0488843 0.0813227 0.0138444 0.024078 0.0401353 0.0181398 0.0715883 0.0224465 0.0138444 0.024078 0.00618815 0.0112922 0.0114313 0.00723486 0.0178411 0.0122858 0.0093073 0.0152548 0.00534286 0.00972601 0.0057463 0.00295702 0.0227635 0.0131605 0.00534286 0.00972601 0.00100361 0.00920403 0.00358688 0.00239217 0.0138226 0.00702655 0.0215899 0.0711789 0.0175975 0.03967 0.0227635 0.0131605 0.0809443 0.048638 0.0175975 0.03967 0.00920403 0.0174045 0.0138226 0.00702655 0.0483631 0.0237969 0.0219276 0.0123355 0.0702132 0.0297166 0.0231392 0.0680303 0.0116248 0.0278653 0.0123355 0.00274336 0.0279749 0.0114833 0.0116248 0.0278653 0.00279711 0.0122967 0.0279749 0.0114833 0.0681085 0.0231143 0.029738 0.0701619 0.0122967 0.0217964 0.0701984 0.0298243 0.0218433 0.0123645 0.0680717 0.0232165 0.0279282 0.0116251 0.0680751 0.0232286 0.0279336 0.0116275 0.0702097 0.0298225 0.0218567 0.0123703 0.0279336 0.0116275 0.0123645 0.00288576 0.0279282 0.0116251 0.0123703 0.00288397 0.0027034 0.0122944 0.0114306 0.027977 0.00276411 0.0122632 0.011545 0.0278925 0.0114306 0.027977 0.0230703 0.0680978 0.0122632 0.0217623 0.0297309 0.0701278 0.0122944 0.0218853 0.0297048 0.0701884 0.011545 0.0278925 0.0230754 0.0680134 0.0232827 0.0681608 0.0117068 0.0280634 0.0219155 0.012451 0.0702863 0.0299412 0.0117068 0.0280634 0.00292942 0.0125283 0.012451 0.00298641 0.0280546 0.0117959 0.0299352 0.0703516 0.0125283 0.0221271 0.0280546 0.0117959 0.068222 0.0233816 0.00264405 0.0122709 0.0114379 0.0279356 0.00264626 0.012238 0.011449 0.0279635 0.0114379 0.0279356 0.0229814 0.0680659 0.012238 0.0218297 0.029653 0.0701451 0.0122709 0.0218978 0.0296472 0.0701944 0.011449 0.0279635 0.023042 0.068091 0.0230868 0.0680238 0.0115447 0.0278918 0.0218962 0.0122942 0.0701985 0.0297039 0.0115447 0.0278918 0.00275302 0.0122523 0.0122942 0.00269211 0.0279761 0.0114197 0.0297302 0.070126 0.0122523 0.0217515 0.0279761 0.0114197 0.0680958 0.0230594 0.00274497 0.0122488 0.0115617 0.0278077 0.0026916 0.0122726 0.0114354 0.027917 0.0115617 0.0278077 0.0230644 0.0679633 0.0122726 0.0218536 0.0296587 0.070146 0.0122488 0.0217527 0.0296803 0.0701092 0.0114354 0.027917 0.0230712 0.0680556 0.0228129 0.0678976 0.0111817 0.0277664 0.0216777 0.0120089 0.0700003 0.0294368 0.0111817 0.0277664 0.00228338 0.0120206 0.0120089 0.00234008 0.0277263 0.0112225 0.0294401 0.0699875 0.0120206 0.0217578 0.0277263 0.0112225 0.0679025 0.0228544 0.0219189 0.0124473 0.0702868 0.0299292 0.023284 0.0681532 0.0116996 0.028059 0.0124473 0.00297559 0.0280391 0.0117832 0.0116996 0.028059 0.00292049 0.0125117 0.0280391 0.0117832 0.0682073 0.0233566 0.0299266 0.070329 0.0125117 0.022103 0.070145 0.0296301 0.0218923 0.0121637 0.0679656 0.023027 0.0278397 0.0114106 0.0680906 0.0230343 0.0279225 0.0113566 0.0701163 0.0296554 0.0218558 0.0121831 0.0279225 0.0113566 0.0121637 0.00243516 0.0278397 0.0114106 0.0121831 0.00251047 0.0216535 0.0120032 0.0699746 0.0294486 0.0227949 0.067895 0.0111993 0.0277425 0.0120032 0.00235282 0.0277593 0.011217 0.0111993 0.0277425 0.00228732 0.0120376 0.0277593 0.011217 0.0679174 0.0228863 0.0294397 0.0700