# vtk DataFile Version 3.0
#This file was generated by the deal.II library on 2020/8/22 at 21:53:34
ASCII
DATASET UNSTRUCTURED_GRID

POINTS 772 double
0.5 0.5 0
1 0.5 0
0.5 1 0
1 1 0
-1 -0.25 0
-0.75 -0.25 0
-1 0 0
-0.75 0 0
-0.25 -0.25 0
0 -0.25 0
-0.25 0 0
0 0 0
-1 0 0
-0.75 0 0
-1 0.25 0
-0.75 0.25 0
-0.75 0 0
-0.5 0 0
-0.75 0.25 0
-0.5 0.25 0
-0.25 0 0
0 0 0
-0.25 0.25 0
0 0.25 0
-1 -1 0
-0.75 -1 0
-1 -0.75 0
-0.75 -0.75 0
-1 -0.75 0
-0.75 -0.75 0
-1 -0.5 0
-0.75 -0.5 0
-0.25 -1 0
0 -1 0
-0.25 -0.75 0
0 -0.75 0
-0.25 -0.75 0
0 -0.75 0
-0.25 -0.5 0
0 -0.5 0
0 -1 0
0.25 -1 0
0 -0.75 0
0.25 -0.75 0
0.5 -1 0
0.75 -1 0
0.5 -0.75 0
0.75 -0.75 0
0.75 -1 0
1 -1 0
0.75 -0.75 0
1 -0.75 0
0 -0.25 0
0.25 -0.25 0
0 0 0
0.25 0 0
0.75 -0.25 0
1 -0.25 0
0.75 0 0
1 0 0
-1 0.75 0
-0.75 0.75 0
-1 1 0
-0.75 1 0
-0.25 0.75 0
0 0.75 0
-0.25 1 0
0 1 0
0 0 0
0.25 0 0
0 0.25 0
0.25 0.25 0
0.25 0 0
0.5 0 0
0.25 0.25 0
0.5 0.25 0
0 0.25 0
0.25 0.25 0
0 0.5 0
0.25 0.5 0
0.25 0.25 0
0.5 0.25 0
0.25 0.5 0
0.5 0.5 0
0.5 0 0
0.75 0 0
0.5 0.25 0
0.75 0.25 0
0.75 0 0
1 0 0
0.75 0.25 0
1 0.25 0
0.5 0.25 0
0.75 0.25 0
0.5 0.5 0
0.75 0.5 0
0.75 0.25 0
1 0.25 0
0.75 0.5 0
1 0.5 0
0 0.5 0
0.25 0.5 0
0 0.75 0
0.25 0.75 0
0.25 0.5 0
0.5 0.5 0
0.25 0.75 0
0.5 0.75 0
0 0.75 0
0.25 0.75 0
0 1 0
0.25 1 0
0.25 0.75 0
0.5 0.75 0
0.25 1 0
0.5 1 0
-1 -0.5 0
-0.875 -0.5 0
-1 -0.375 0
-0.875 -0.375 0
-0.875 -0.5 0
-0.75 -0.5 0
-0.875 -0.375 0
-0.75 -0.375 0
-1 -0.375 0
-0.875 -0.375 0
-1 -0.25 0
-0.875 -0.25 0
-0.875 -0.375 0
-0.75 -0.375 0
-0.875 -0.25 0
-0.75 -0.25 0
-0.75 -0.5 0
-0.625 -0.5 0
-0.75 -0.375 0
-0.625 -0.375 0
-0.75 -0.375 0
-0.625 -0.375 0
-0.75 -0.25 0
-0.625 -0.25 0
-0.625 -0.375 0
-0.5 -0.375 0
-0.625 -0.25 0
-0.5 -0.25 0
-0.375 -0.5 0
-0.25 -0.5 0
-0.375 -0.375 0
-0.25 -0.375 0
-0.5 -0.375 0
-0.375 -0.375 0
-0.5 -0.25 0
-0.375 -0.25 0
-0.375 -0.375 0
-0.25 -0.375 0
-0.375 -0.25 0
-0.25 -0.25 0
-0.25 -0.5 0
-0.125 -0.5 0
-0.25 -0.375 0
-0.125 -0.375 0
-0.125 -0.5 0
0 -0.5 0
-0.125 -0.375 0
0 -0.375 0
-0.25 -0.375 0
-0.125 -0.375 0
-0.25 -0.25 0
-0.125 -0.25 0
-0.125 -0.375 0
0 -0.375 0
-0.125 -0.25 0
0 -0.25 0
-0.75 0.25 0
-0.625 0.25 0
-0.75 0.375 0
-0.625 0.375 0
-0.625 0.25 0
-0.5 0.25 0
-0.625 0.375 0
-0.5 0.375 0
-0.75 0.375 0
-0.625 0.375 0
-0.75 0.5 0
-0.625 0.5 0
-0.5 0 0
-0.375 0 0
-0.5 0.125 0
-0.375 0.125 0
-0.375 0 0
-0.25 0 0
-0.375 0.125 0
-0.25 0.125 0
-0.5 0.125 0
-0.375 0.125 0
-0.5 0.25 0
-0.375 0.25 0
-0.375 0.125 0
-0.25 0.125 0
-0.375 0.25 0
-0.25 0.25 0
-0.5 0.25 0
-0.375 0.25 0
-0.5 0.375 0
-0.375 0.375 0
-0.375 0.25 0
-0.25 0.25 0
-0.375 0.375 0
-0.25 0.375 0
-0.375 0.375 0
-0.25 0.375 0
-0.375 0.5 0
-0.25 0.5 0
-0.75 -0.75 0
-0.625 -0.75 0
-0.75 -0.625 0
-0.625 -0.625 0
-0.625 -0.75 0
-0.5 -0.75 0
-0.625 -0.625 0
-0.5 -0.625 0
-0.75 -0.625 0
-0.625 -0.625 0
-0.75 -0.5 0
-0.625 -0.5 0
-0.5 -0.75 0
-0.375 -0.75 0
-0.5 -0.625 0
-0.375 -0.625 0
-0.375 -0.75 0
-0.25 -0.75 0
-0.375 -0.625 0
-0.25 -0.625 0
-0.375 -0.625 0
-0.25 -0.625 0
-0.375 -0.5 0
-0.25 -0.5 0
0.25 -0.75 0
0.375 -0.75 0
0.25 -0.625 0
0.375 -0.625 0
0.375 -0.75 0
0.5 -0.75 0
0.375 -0.625 0
0.5 -0.625 0
0.25 -0.625 0
0.375 -0.625 0
0.25 -0.5 0
0.375 -0.5 0
0.5 -0.75 0
0.625 -0.75 0
0.5 -0.625 0
0.625 -0.625 0
0.625 -0.75 0
0.75 -0.75 0
0.625 -0.625 0
0.75 -0.625 0
0.625 -0.625 0
0.75 -0.625 0
0.625 -0.5 0
0.75 -0.5 0
0.25 -0.5 0
0.375 -0.5 0
0.25 -0.375 0
0.375 -0.375 0
0.25 -0.375 0
0.375 -0.375 0
0.25 -0.25 0
0.375 -0.25 0
0.375 -0.375 0
0.5 -0.375 0
0.375 -0.25 0
0.5 -0.25 0
0.625 -0.5 0
0.75 -0.5 0
0.625 -0.375 0
0.75 -0.375 0
0.5 -0.375 0
0.625 -0.375 0
0.5 -0.25 0
0.625 -0.25 0
0.625 -0.375 0
0.75 -0.375 0
0.625 -0.25 0
0.75 -0.25 0
-0.75 0.5 0
-0.625 0.5 0
-0.75 0.625 0
-0.625 0.625 0
-0.75 0.625 0
-0.625 0.625 0
-0.75 0.75 0
-0.625 0.75 0
-0.625 0.625 0
-0.5 0.625 0
-0.625 0.75 0
-0.5 0.75 0
-0.375 0.5 0
-0.25 0.5 0
-0.375 0.625 0
-0.25 0.625 0
-0.5 0.625 0
-0.375 0.625 0
-0.5 0.75 0
-0.375 0.75 0
-0.375 0.625 0
-0.25 0.625 0
-0.375 0.75 0
-0.25 0.75 0
-0.75 -0.25 0
-0.625 -0.25 0
-0.75 -0.125 0
-0.625 -0.125 0
-0.625 -0.25 0
-0.5 -0.25 0
-0.625 -0.125 0
-0.5 -0.125 0
-0.75 -0.125 0
-0.625 -0.125 0
-0.75 0 0
-0.625 0 0
-0.625 -0.125 0
-0.5 -0.125 0
-0.625 0 0
-0.5 0 0
-0.5 -0.25 0
-0.375 -0.25 0
-0.5 -0.125 0
-0.375 -0.125 0
-0.375 -0.25 0
-0.25 -0.25 0
-0.375 -0.125 0
-0.25 -0.125 0
-0.5 -0.125 0
-0.375 -0.125 0
-0.5 0 0
-0.375 0 0
-0.375 -0.125 0
-0.25 -0.125 0
-0.375 0 0
-0.25 0 0
-1 0.25 0
-0.875 0.25 0
-1 0.375 0
-0.875 0.375 0
-0.875 0.25 0
-0.75 0.25 0
-0.875 0.375 0
-0.75 0.375 0
-1 0.375 0
-0.875 0.375 0
-1 0.5 0
-0.875 0.5 0
-0.875 0.375 0
-0.75 0.375 0
-0.875 0.5 0
-0.75 0.5 0
-0.25 0.25 0
-0.125 0.25 0
-0.25 0.375 0
-0.125 0.375 0
-0.125 0.25 0
0 0.25 0
-0.125 0.375 0
0 0.375 0
-0.25 0.375 0
-0.125 0.375 0
-0.25 0.5 0
-0.125 0.5 0
-0.125 0.375 0
0 0.375 0
-0.125 0.5 0
0 0.5 0
-0.75 -1 0
-0.625 -1 0
-0.75 -0.875 0
-0.625 -0.875 0
-0.625 -1 0
-0.5 -1 0
-0.625 -0.875 0
-0.5 -0.875 0
-0.75 -0.875 0
-0.625 -0.875 0
-0.75 -0.75 0
-0.625 -0.75 0
-0.625 -0.875 0
-0.5 -0.875 0
-0.625 -0.75 0
-0.5 -0.75 0
-0.5 -1 0
-0.375 -1 0
-0.5 -0.875 0
-0.375 -0.875 0
-0.375 -1 0
-0.25 -1 0
-0.375 -0.875 0
-0.25 -0.875 0
-0.5 -0.875 0
-0.375 -0.875 0
-0.5 -0.75 0
-0.375 -0.75 0
-0.375 -0.875 0
-0.25 -0.875 0
-0.375 -0.75 0
-0.25 -0.75 0
0.25 -1 0
0.375 -1 0
0.25 -0.875 0
0.375 -0.875 0
0.375 -1 0
0.5 -1 0
0.375 -0.875 0
0.5 -0.875 0
0.25 -0.875 0
0.375 -0.875 0
0.25 -0.75 0
0.375 -0.75 0
0.375 -0.875 0
0.5 -0.875 0
0.375 -0.75 0
0.5 -0.75 0
0 -0.75 0
0.125 -0.75 0
0 -0.625 0
0.125 -0.625 0
0.125 -0.75 0
0.25 -0.75 0
0.125 -0.625 0
0.25 -0.625 0
0 -0.625 0
0.125 -0.625 0
0 -0.5 0
0.125 -0.5 0
0.125 -0.625 0
0.25 -0.625 0
0.125 -0.5 0
0.25 -0.5 0
0.75 -0.75 0
0.875 -0.75 0
0.75 -0.625 0
0.875 -0.625 0
0.875 -0.75 0
1 -0.75 0
0.875 -0.625 0
1 -0.625 0
0.75 -0.625 0
0.875 -0.625 0
0.75 -0.5 0
0.875 -0.5 0
0.875 -0.625 0
1 -0.625 0
0.875 -0.5 0
1 -0.5 0
0 -0.5 0
0.125 -0.5 0
0 -0.375 0
0.125 -0.375 0
0.125 -0.5 0
0.25 -0.5 0
0.125 -0.375 0
0.25 -0.375 0
0 -0.375 0
0.125 -0.375 0
0 -0.25 0
0.125 -0.25 0
0.125 -0.375 0
0.25 -0.375 0
0.125 -0.25 0
0.25 -0.25 0
0.25 -0.25 0
0.375 -0.25 0
0.25 -0.125 0
0.375 -0.125 0
0.375 -0.25 0
0.5 -0.25 0
0.375 -0.125 0
0.5 -0.125 0
0.25 -0.125 0
0.375 -0.125 0
0.25 0 0
0.375 0 0
0.375 -0.125 0
0.5 -0.125 0
0.375 0 0
0.5 0 0
0.75 -0.5 0
0.875 -0.5 0
0.75 -0.375 0
0.875 -0.375 0
0.875 -0.5 0
1 -0.5 0
0.875 -0.375 0
1 -0.375 0
0.75 -0.375 0
0.875 -0.375 0
0.75 -0.25 0
0.875 -0.25 0
0.875 -0.375 0
1 -0.375 0
0.875 -0.25 0
1 -0.25 0
0.5 -0.25 0
0.625 -0.25 0
0.5 -0.125 0
0.625 -0.125 0
0.625 -0.25 0
0.75 -0.25 0
0.625 -0.125 0
0.75 -0.125 0
0.5 -0.125 0
0.625 -0.125 0
0.5 0 0
0.625 0 0
0.625 -0.125 0
0.75 -0.125 0
0.625 0 0
0.75 0 0
-1 0.5 0
-0.875 0.5 0
-1 0.625 0
-0.875 0.625 0
-0.875 0.5 0
-0.75 0.5 0
-0.875 0.625 0
-0.75 0.625 0
-1 0.625 0
-0.875 0.625 0
-1 0.75 0
-0.875 0.75 0
-0.875 0.625 0
-0.75 0.625 0
-0.875 0.75 0
-0.75 0.75 0
-0.75 0.75 0
-0.625 0.75 0
-0.75 0.875 0
-0.625 0.875 0
-0.625 0.75 0
-0.5 0.75 0
-0.625 0.875 0
-0.5 0.875 0
-0.75 0.875 0
-0.625 0.875 0
-0.75 1 0
-0.625 1 0
-0.625 0.875 0
-0.5 0.875 0
-0.625 1 0
-0.5 1 0
-0.25 0.5 0
-0.125 0.5 0
-0.25 0.625 0
-0.125 0.625 0
-0.125 0.5 0
0 0.5 0
-0.125 0.625 0
0 0.625 0
-0.25 0.625 0
-0.125 0.625 0
-0.25 0.75 0
-0.125 0.75 0
-0.125 0.625 0
0 0.625 0
-0.125 0.75 0
0 0.75 0
-0.5 0.75 0
-0.375 0.75 0
-0.5 0.875 0
-0.375 0.875 0
-0.375 0.75 0
-0.25 0.75 0
-0.375 0.875 0
-0.25 0.875 0
-0.5 0.875 0
-0.375 0.875 0
-0.5 1 0
-0.375 1 0
-0.375 0.875 0
-0.25 0.875 0
-0.375 1 0
-0.25 1 0
-0.625 -0.5 0
-0.5625 -0.5 0
-0.625 -0.4375 0
-0.5625 -0.4375 0
-0.5625 -0.5 0
-0.5 -0.5 0
-0.5625 -0.4375 0
-0.5 -0.4375 0
-0.625 -0.4375 0
-0.5625 -0.4375 0
-0.625 -0.375 0
-0.5625 -0.375 0
-0.5625 -0.4375 0
-0.5 -0.4375 0
-0.5625 -0.375 0
-0.5 -0.375 0
-0.5 -0.5 0
-0.4375 -0.5 0
-0.5 -0.4375 0
-0.4375 -0.4375 0
-0.4375 -0.5 0
-0.375 -0.5 0
-0.4375 -0.4375 0
-0.375 -0.4375 0
-0.5 -0.4375 0
-0.4375 -0.4375 0
-0.5 -0.375 0
-0.4375 -0.375 0
-0.4375 -0.4375 0
-0.375 -0.4375 0
-0.4375 -0.375 0
-0.375 -0.375 0
-0.625 0.375 0
-0.5625 0.375 0
-0.625 0.4375 0
-0.5625 0.4375 0
-0.5625 0.375 0
-0.5 0.375 0
-0.5625 0.4375 0
-0.5 0.4375 0
-0.625 0.4375 0
-0.5625 0.4375 0
-0.625 0.5 0
-0.5625 0.5 0
-0.5625 0.4375 0
-0.5 0.4375 0
-0.5625 0.5 0
-0.5 0.5 0
-0.5 0.375 0
-0.4375 0.375 0
-0.5 0.4375 0
-0.4375 0.4375 0
-0.4375 0.375 0
-0.375 0.375 0
-0.4375 0.4375 0
-0.375 0.4375 0
-0.5 0.4375 0
-0.4375 0.4375 0
-0.5 0.5 0
-0.4375 0.5 0
-0.4375 0.4375 0
-0.375 0.4375 0
-0.4375 0.5 0
-0.375 0.5 0
-0.625 -0.625 0
-0.5625 -0.625 0
-0.625 -0.5625 0
-0.5625 -0.5625 0
-0.5625 -0.625 0
-0.5 -0.625 0
-0.5625 -0.5625 0
-0.5 -0.5625 0
-0.625 -0.5625 0
-0.5625 -0.5625 0
-0.625 -0.5 0
-0.5625 -0.5 0
-0.5625 -0.5625 0
-0.5 -0.5625 0
-0.5625 -0.5 0
-0.5 -0.5 0
-0.5 -0.625 0
-0.4375 -0.625 0
-0.5 -0.5625 0
-0.4375 -0.5625 0
-0.4375 -0.625 0
-0.375 -0.625 0
-0.4375 -0.5625 0
-0.375 -0.5625 0
-0.5 -0.5625 0
-0.4375 -0.5625 0
-0.5 -0.5 0
-0.4375 -0.5 0
-0.4375 -0.5625 0
-0.375 -0.5625 0
-0.4375 -0.5 0
-0.375 -0.5 0
0.375 -0.625 0
0.4375 -0.625 0
0.375 -0.5625 0
0.4375 -0.5625 0
0.4375 -0.625 0
0.5 -0.625 0
0.4375 -0.5625 0
0.5 -0.5625 0
0.375 -0.5625 0
0.4375 -0.5625 0
0.375 -0.5 0
0.4375 -0.5 0
0.4375 -0.5625 0
0.5 -0.5625 0
0.4375 -0.5 0
0.5 -0.5 0
0.5 -0.625 0
0.5625 -0.625 0
0.5 -0.5625 0
0.5625 -0.5625 0
0.5625 -0.625 0
0.625 -0.625 0
0.5625 -0.5625 0
0.625 -0.5625 0
0.5 -0.5625 0
0.5625 -0.5625 0
0.5 -0.5 0
0.5625 -0.5 0
0.5625 -0.5625 0
0.625 -0.5625 0
0.5625 -0.5 0
0.625 -0.5 0
0.375 -0.5 0
0.4375 -0.5 0
0.375 -0.4375 0
0.4375 -0.4375 0
0.4375 -0.5 0
0.5 -0.5 0
0.4375 -0.4375 0
0.5 -0.4375 0
0.375 -0.4375 0
0.4375 -0.4375 0
0.375 -0.375 0
0.4375 -0.375 0
0.4375 -0.4375 0
0.5 -0.4375 0
0.4375 -0.375 0
0.5 -0.375 0
0.5 -0.5 0
0.5625 -0.5 0
0.5 -0.4375 0
0.5625 -0.4375 0
0.5625 -0.5 0
0.625 -0.5 0
0.5625 -0.4375 0
0.625 -0.4375 0
0.5 -0.4375 0
0.5625 -0.4375 0
0.5 -0.375 0
0.5625 -0.375 0
0.5625 -0.4375 0
0.625 -0.4375 0
0.5625 -0.375 0
0.625 -0.375 0
-0.625 0.5 0
-0.5625 0.5 0
-0.625 0.5625 0
-0.5625 0.5625 0
-0.5625 0.5 0
-0.5 0.5 0
-0.5625 0.5625 0
-0.5 0.5625 0
-0.625 0.5625 0
-0.5625 0.5625 0
-0.625 0.625 0
-0.5625 0.625 0
-0.5625 0.5625 0
-0.5 0.5625 0
-0.5625 0.625 0
-0.5 0.625 0
-0.5 0.5 0
-0.4375 0.5 0
-0.5 0.5625 0
-0.4375 0.5625 0
-0.4375 0.5 0
-0.375 0.5 0
-0.4375 0.5625 0
-0.375 0.5625 0
-0.5 0.5625 0
-0.4375 0.5625 0
-0.5 0.625 0
-0.4375 0.625 0
-0.4375 0.5625 0
-0.375 0.5625 0
-0.4375 0.625 0
-0.375 0.625 0

CELLS 193 965
4	0	1	3	2
4	4	5	7	6
4	8	9	11	10
4	12	13	15	14
4	16	17	19	18
4	20	21	23	22
4	24	25	27	26
4	28	29	31	30
4	32	33	35	34
4	36	37	39	38
4	40	41	43	42
4	44	45	47	46
4	48	49	51	50
4	52	53	55	54
4	56	57	59	58
4	60	61	63	62
4	64	65	67	66
4	68	69	71	70
4	72	73	75	74
4	76	77	79	78
4	80	81	83	82
4	84	85	87	86
4	88	89	91	90
4	92	93	95	94
4	96	97	99	98
4	100	101	103	102
4	104	105	107	106
4	108	109	111	110
4	112	113	115	114
4	116	117	119	118
4	120	121	123	122
4	124	125	127	126
4	128	129	131	130
4	132	133	135	134
4	136	137	139	138
4	140	141	143	142
4	144	145	147	146
4	148	149	151	150
4	152	153	155	154
4	156	157	159	158
4	160	161	163	162
4	164	165	167	166
4	168	169	171	170
4	172	173	175	174
4	176	177	179	178
4	180	181	183	182
4	184	185	187	186
4	188	189	191	190
4	192	193	195	194
4	196	197	199	198
4	200	201	203	202
4	204	205	207	206
4	208	209	211	210
4	212	213	215	214
4	216	217	219	218
4	220	221	223	222
4	224	225	227	226
4	228	229	231	230
4	232	233	235	234
4	236	237	239	238
4	240	241	243	242
4	244	245	247	246
4	248	249	251	250
4	252	253	255	254
4	256	257	259	258
4	260	261	263	262
4	264	265	267	266
4	268	269	271	270
4	272	273	275	274
4	276	277	279	278
4	280	281	283	282
4	284	285	287	286
4	288	289	291	290
4	292	293	295	294
4	296	297	299	298
4	300	301	303	302
4	304	305	307	306
4	308	309	311	310
4	312	313	315	314
4	316	317	319	318
4	320	321	323	322
4	324	325	327	326
4	328	329	331	330
4	332	333	335	334
4	336	337	339	338
4	340	341	343	342
4	344	345	347	346
4	348	349	351	350
4	352	353	355	354
4	356	357	359	358
4	360	361	363	362
4	364	365	367	366
4	368	369	371	370
4	372	373	375	374
4	376	377	379	378
4	380	381	383	382
4	384	385	387	386
4	388	389	391	390
4	392	393	395	394
4	396	397	399	398
4	400	401	403	402
4	404	405	407	406
4	408	409	411	410
4	412	413	415	414
4	416	417	419	418
4	420	421	423	422
4	424	425	427	426
4	428	429	431	430
4	432	433	435	434
4	436	437	439	438
4	440	441	443	442
4	444	445	447	446
4	448	449	451	450
4	452	453	455	454
4	456	457	459	458
4	460	461	463	462
4	464	465	467	466
4	468	469	471	470
4	472	473	475	474
4	476	477	479	478
4	480	481	483	482
4	484	485	487	486
4	488	489	491	490
4	492	493	495	494
4	496	497	499	498
4	500	501	503	502
4	504	505	507	506
4	508	509	511	510
4	512	513	515	514
4	516	517	519	518
4	520	521	523	522
4	524	525	527	526
4	528	529	531	530
4	532	533	535	534
4	536	537	539	538
4	540	541	543	542
4	544	545	547	546
4	548	549	551	550
4	552	553	555	554
4	556	557	559	558
4	560	561	563	562
4	564	565	567	566
4	568	569	571	570
4	572	573	575	574
4	576	577	579	578
4	580	581	583	582
4	584	585	587	586
4	588	589	591	590
4	592	593	595	594
4	596	597	599	598
4	600	601	603	602
4	604	605	607	606
4	608	609	611	610
4	612	613	615	614
4	616	617	619	618
4	620	621	623	622
4	624	625	627	626
4	628	629	631	630
4	632	633	635	634
4	636	637	639	638
4	640	641	643	642
4	644	645	647	646
4	648	649	651	650
4	652	653	655	654
4	656	657	659	658
4	660	661	663	662
4	664	665	667	666
4	668	669	671	670
4	672	673	675	674
4	676	677	679	678
4	680	681	683	682
4	684	685	687	686
4	688	689	691	690
4	692	693	695	694
4	696	697	699	698
4	700	701	703	702
4	704	705	707	706
4	708	709	711	710
4	712	713	715	714
4	716	717	719	718
4	720	721	723	722
4	724	725	727	726
4	728	729	731	730
4	732	733	735	734
4	736	737	739	738
4	740	741	743	742
4	744	745	747	746
4	748	749	751	750
4	752	753	755	754
4	756	757	759	758
4	760	761	763	762
4	764	765	767	766
4	768	769	771	770

CELL_TYPES 193
 9 9 9 9 9 9 9 9 9 9 9 9 9 9 9 9 9 9 9 9 9 9 9 9 9 9 9 9 9 9 9 9 9 9 9 9 9 9 9 9 9 9 9 9 9 9 9 9 9 9 9 9 9 9 9 9 9 9 9 9 9 9 9 9 9 9 9 9 9 9 9 9 9 9 9 9 9 9 9 9 9 9 9 9 9 9 9 9 9 9 9 9 9 9 9 9 9 9 9 9 9 9 9 9 9 9 9 9 9 9 9 9 9 9 9 9 9 9 9 9 9 9 9 9 9 9 9 9 9 9 9 9 9 9 9 9 9 9 9 9 9 9 9 9 9 9 9 9 9 9 9 9 9 9 9 9 9 9 9 9 9 9 9 9 9 9 9 9 9 9 9 9 9 9 9 9 9 9 9 9 9 9 9 9 9 9 9 9 9 9 9 9 9
POINT_DATA 772
VECTORS gradient double
-0.0167933 -0.0161037 0
-0.0167839 -1.40454e-05 0
-0.000385431 -0.016668 0
0.000372398 -0.000273912 0
0.0997358 -0.300899 0
-1.11324 1.09627 0
-0.0430899 -0.0180937 0
0.409339 -0.30547 0
1.07085 1.09295 0
-0.176816 -0.272779 0
-0.304741 -0.16564 0
0.00753463 0.0204103 0
-0.00602962 -0.0682244 0
-0.318405 0.0999775 0
0.105524 0.269607 0
-0.667765 -1.01863 0
-0.452985 0.496917 0
1.04147 0.622104 0
-1.3853 -1.66683 0
-1.98919 -8.49873 0
-0.289884 0.106566 0
0.059359 -0.0780948 0
1.08312 -1.1522 0
-0.226428 0.255099 0
-0.0463717 0.0181329 0
0.288994 0.142941 0
0.200495 -0.150798 0
-1.04917 -0.59855 0
0.286746 -0.276958 0
-1.63572 -1.31378 0
0.253398 0.830679 0
-8.44567 -1.97594 0
-0.347119 0.107953 0
-0.00696361 -0.00498512 0
0.937962 -0.655755 0
-0.174217 -0.307848 0
1.58479 -1.37241 0
-0.570697 -0.441713 0
8.41592 -1.97455 0
-0.69749 1.05595 0
-0.0568666 -0.0419999 0
0.230214 0.107988 0
0.232669 0.419342 0
-1.16144 -1.10095 0
-0.886129 0.275885 0
0.252633 0.323956 0
1.92779 -8.4299 0
1.27352 -1.62199 0
0.131927 0.233409 0
0.138551 -0.0514801 0
0.566097 -1.03813 0
-0.31031 0.267482 0
0.0955877 -0.286233 0
-1.1702 1.10695 0
-0.0909662 0.0774211 0
0.248406 -0.208698 0
1.1031 1.11602 0
-0.287515 -0.273553 0
-0.296065 -0.185354 0
0.137133 0.136077 0
0.120705 -0.324227 0
-1.12067 1.05306 0
-0.0826048 0.0857719 0
0.268538 -0.318521 0
1.10557 1.08475 0
-0.190875 -0.306696 0
-0.272685 -0.307493 0
0.133454 0.135095 0
0.0443564 0.060282 0
-0.01863 -0.0761336 0
-0.0912336 -0.0134313 0
-0.0396151 -0.0313736 0
-0.037233 0.0211286 0
-0.0261122 0.118095 0
-0.0414726 -0.0256805 0
-0.0266124 -0.0441033 0
0.00659156 -0.0349195 0
-0.0333811 -0.0347288 0
0.108786 -0.0286833 0
-0.0489463 -0.0244412 0
-0.0239619 -0.0177075 0
-0.0227241 -0.0143216 0
-0.0191324 -0.0208547 0
-0.0174989 -0.0148114 0
-0.0286654 0.119726 0
-0.012656 0.0272794 0
-0.0181991 -0.0444795 0
-0.0057564 -0.0184297 0
-0.0309238 -0.0648741 0
-0.0442055 0.0492037 0
-0.01196 -0.0107572 0
-0.0223307 0.000178397 0
-0.0227521 -0.0143437 0
-0.0243781 -0.00873624 0
-0.0171352 -0.0151947 0
-0.0161737 -0.0074712 0
-0.0246924 -0.00658469 0
-0.0231801 0.00153389 0
-0.0161838 -0.00766911 0
-0.0170204 9.31289e-06 0
0.111228 -0.0310258 0
-0.0494214 -0.0167399 0
0.0211539 -0.0151616 0
-0.0223285 -0.00814497 0
-0.0193481 -0.0216094 0
-0.0166194 -0.0153958 0
-0.0127642 -0.0263493 0
-0.00983163 -0.017119 0
-0.0697111 -0.0374896 0
-0.0173754 -0.0155711 0
0.0499749 -0.0529936 0
0.00193767 -0.0255299 0
-0.0119745 -0.0278764 0
-0.0104704 -0.0171828 0
0.00256548 -0.0262414 0
0.000360247 -0.016468 0
-0.423394 -0.870276 0
-1.46965 2.28602 0
-0.135516 0.077374 0
-0.899847 0.326666 0
-0.982328 0.575101 0
-10.7878 -2.02505 0
-0.770381 0.776712 0
-6.20157 2.77493 0
-0.0709767 0.0462782 0
-1.3246 0.374277 0
-0.0966359 0.388493 0
-0.122646 -0.366301 0
-1.34378 0.741056 0
-6.70492 2.68843 0
0.0241171 0.527795 0
-1.27225 2.16116 0
-13.8185 0.869065 0
-17.9068 1.62813 0
-7.94993 2.43866 0
-13.2501 12.1141 0
-8.59717 2.54551 0
-12.7031 12.4787 0
-1.83112 1.73578 0
-2.77327 8.63271 0
-12.3509 13.2538 0
-1.55381 17.8424 0
-2.71684 7.72239 0
-0.426568 13.038 0
17.7997 1.59127 0
13.6886 0.844196 0
13.2071 12.1702 0
7.87192 2.45565 0
1.42134 17.8491 0
12.241 13.2405 0
0.377065 13.0343 0
2.66307 7.69872 0
12.6086 12.5119 0
8.54229 2.55731 0
2.72119 8.60667 0
1.74863 1.74853 0
10.6476 -1.99192 0
1.05399 0.65799 0
6.13474 2.82375 0
0.699064 0.818144 0
1.51509 2.36064 0
0.501539 -0.626278 0
0.851158 0.322494 0
0.0831151 0.0220146 0
6.65716 2.73376 0
1.35197 0.784249 0
1.19305 2.15747 0
-0.0535863 0.502275 0
1.34545 0.382652 0
-0.0958053 0.0111821 0
0.101186 -0.303126 0
0.0188124 0.39534 0
-1.61302 -1.5552 0
-3.08255 -9.683 0
-8.56999 -2.73513 0
-12.7179 -12.6714 0
-3.18135 -7.26844 0
0.0970078 -12.6068 0
-12.4344 -13.3705 0
-1.40104 -17.9823 0
-7.77011 -2.66854 0
-13.1721 -12.3494 0
-13.0902 -0.47685 0
-17.932 -1.5977 0
-0.64271 -0.576614 0
0.00548157 -0.157982 0
2.34803 -1.59338 0
0.307702 -0.928239 0
-0.00578469 0.0217751 0
0.381306 -0.0892176 0
0.367875 -1.42286 0
-0.318232 -0.17625 0
0.644629 -1.13189 0
0.803673 -0.776232 0
-2.00774 -10.7312 0
2.81116 -6.21681 0
0.769837 -1.42944 0
0.48724 -0.0211129 0
2.72133 -6.73908 0
2.14771 -1.27136 0
0.830446 -13.7732 0
2.44279 -7.9547 0
1.57831 -17.8914 0
12.1605 -13.2964 0
2.54471 -8.6248 0
1.73723 -1.82725 0
12.5026 -12.6985 0
8.60374 -2.80659 0
13.2314 -12.3321 0
7.69375 -2.75018 0
17.8445 -1.52226 0
13.0314 -0.46709 0
-1.48853 -1.63784 0
-2.71697 -8.5642 0
-9.66887 -2.99726 0
-12.6272 -12.6812 0
-2.654 -7.7488 0
-0.442948 -13.0779 0
-12.3383 -13.1851 0
-1.59645 -17.8988 0
-7.33656 -3.09254 0
-13.3043 -12.3687 0
-12.5471 0.0776215 0
-18.0178 -1.42404 0
0.384635 -13.0685 0
2.58045 -7.75418 0
1.4901 -17.9127 0
12.257 -13.1566 0
2.64785 -8.55463 0
1.47232 -1.60064 0
12.5798 -12.7019 0
9.5984 -3.06784 0
13.2789 -12.4188 0
7.18478 -3.16676 0
17.8908 -1.38778 0
12.5226 0.110814 0
-1.79908 -1.81958 0
-2.60314 -8.58406 0
-8.6962 -2.76232 0
-12.5356 -12.6933 0
-2.49543 -7.93674 0
-0.918606 -13.8031 0
-12.1699 -13.2402 0
-1.67645 -17.896 0
-7.78597 -2.70621 0
-13.3103 -12.3415 0
-13.1039 -0.416862 0
-17.901 -1.55068 0
-0.125597 -12.5299 0
3.05104 -7.32295 0
1.37676 -18.0067 0
12.3287 -13.2931 0
2.95547 -9.65637 0
1.59762 -1.46974 0
12.642 -12.616 0
8.52973 -2.69962 0
13.1452 -12.3274 0
7.71459 -2.63715 0
17.8631 -1.59739 0
13.0507 -0.425964 0
-13.1054 0.387167 0
-17.9044 1.42589 0
-7.78604 2.66369 0
-13.2829 12.201 0
-8.68019 2.71843 0
-12.6188 12.555 0
-1.83618 1.78913 0
-2.78008 8.62133 0
-12.2903 13.2306 0
-1.51502 17.8474 0
-2.73126 7.71371 0
-0.458987 13.08 0
17.88 1.48786 0
13.037 0.398524 0
13.1462 12.2177 0
7.71838 2.65608 0
1.4782 17.8499 0
12.2423 13.2315 0
0.326293 13.078 0
2.63121 7.74561 0
12.5738 12.5743 0
8.58719 2.72437 0
2.69063 8.64736 0
1.78629 1.80027 0
-13.0953 0.347364 0
-17.9203 1.48666 0
-7.76812 2.60767 0
-13.2348 12.195 0
-8.64597 2.66428 0
-12.6159 12.5227 0
-1.85236 1.75558 0
-2.73582 8.58646 0
-12.2518 13.1258 0
-1.57413 17.8561 0
-2.65994 7.72117 0
-0.385941 13.0016 0
17.8358 1.45401 0
13.0414 0.336418 0
13.2427 12.2024 0
7.74171 2.6277 0
1.49334 17.844 0
12.1868 13.1637 0
0.453865 13.0073 0
2.68535 7.69914 0
12.5349 12.5405 0
8.64322 2.68471 0
2.73394 8.57231 0
1.79975 1.78302 0
-2.24079 1.17954 0
-3.01279 6.78907 0
-0.375898 0.00472735 0
-0.549564 1.52181 0
-3.03132 6.07313 0
-0.561157 10.3663 0
-0.562113 1.16033 0
-0.195329 2.38094 0
0.399085 0.134766 0
-0.232738 1.40878 0
-0.258525 0.212018 0
-0.204586 0.106383 0
-0.232841 1.07413 0
-0.204387 2.10045 0
-0.190839 -0.0728675 0
-0.32571 0.202071 0
0.481521 10.3692 0
2.96315 6.08496 0
0.0499545 2.36048 0
0.458295 1.11835 0
2.94899 6.80759 0
2.22395 1.21585 0
0.459802 1.41986 0
0.403552 -0.0411258 0
-0.020013 2.11006 0
0.193359 1.04307 0
-0.255309 -0.479985 0
0.223251 -0.233593 0
0.180442 1.31053 0
-0.394208 0.096172 0
0.19117 -0.099068 0
0.426396 0.0231099 0
-0.0755892 -0.477387 0
-0.12328 0.303568 0
-0.00953657 -0.225847 0
-1.34007 -0.245428 0
0.0139906 -0.489142 0
-1.23756 -2.36412 0
-1.46425 -0.579139 0
-6.81911 -3.10465 0
0.00120923 -0.230169 0
-1.07815 -0.251319 0
-0.00872394 -0.100083 0
-2.07377 -0.151382 0
-1.18097 -0.576173 0
-6.17026 -3.10524 0
-2.36836 -0.174558 0
-10.4117 -0.595523 0
1.20534 -2.29537 0
-0.0483556 -0.471556 0
6.80369 -3.03565 0
1.45205 -0.549807 0
0.0853558 0.364714 0
0.0393131 -0.453084 0
1.33069 -0.230605 0
0.0654283 -0.220509 0
6.08005 -3.05139 0
1.11178 -0.551481 0
10.3642 -0.576606 0
2.37372 -0.14654 0
1.01838 -0.235719 0
-0.131369 -0.220357 0
2.0834 -0.128584 0
0.0559926 -0.0452048 0
-0.488417 -0.0361502 0
-0.18295 0.0158867 0
0.336622 -0.112124 0
-0.236028 -1.30382 0
-0.192873 0.0309663 0
-0.0553136 0.0048733 0
-0.239192 -1.04568 0
-0.112492 -2.06271 0
-0.458286 0.0223959 0
-0.554392 -1.43969 0
-2.39538 -1.22058 0
-3.05995 -6.75399 0
-0.558565 -1.16325 0
-0.157716 -2.35982 0
-3.07924 -6.09756 0
-0.562113 -10.3928 0
0.0183048 0.00471262 0
0.150695 0.0075923 0
0.0597044 -2.05673 0
0.16725 -1.06645 0
0.146643 -0.00317828 0
0.398057 -0.0732628 0
0.16181 -1.32805 0
-0.382193 -0.114084 0
0.0853771 -2.35134 0
0.491988 -1.16908 0
0.500468 -10.3913 0
3.01629 -6.15501 0
0.495474 -1.45209 0
0.411603 0.0227271 0
3.01647 -6.80426 0
2.28027 -1.22601 0
-0.458356 -0.0883908 0
-0.112191 -0.0558954 0
0.300024 -0.110931 0
-0.435394 -1.30921 0
-0.142669 -0.120536 0
0.813837 -0.400185 0
-0.387024 -0.884887 0
-2.34048 -1.45065 0
-0.594944 0.035693 0
-0.801798 -1.32851 0
-2.22465 -1.26082 0
-2.74591 -6.69157 0
-0.836694 -0.755384 0
-0.629434 -0.962995 0
-2.83159 -6.18805 0
1.97579 -10.7717 0
-0.28412 -0.246126 0
-0.203995 0.408195 0
-0.180474 -0.191223 0
-1.47862 -0.220886 0
-0.0743263 -0.366257 0
-1.24388 -2.22702 0
-1.5915 -0.537655 0
-6.85339 -3.00212 0
-0.00137883 -0.177627 0
-1.14416 -0.221191 0
-0.276239 -0.3112 0
-2.17288 -0.190987 0
-1.23016 -0.550254 0
-6.13742 -3.02079 0
-2.45345 -0.182937 0
-10.4328 -0.554572 0
1.18192 -2.37184 0
-0.0578288 -0.437211 0
6.72013 -3.04362 0
1.41193 -0.53388 0
0.0757604 0.363581 0
-0.00132449 -0.440609 0
1.27408 -0.221931 0
0.0112024 -0.179518 0
6.0636 -3.06297 0
1.12883 -0.537685 0
10.3644 -0.550057 0
2.34055 -0.140556 0
1.01425 -0.223002 0
-0.133463 -0.181314 0
2.04355 -0.0956058 0
0.0225467 -0.0201791 0
0.405638 -0.240588 0
-2.18188 -0.00655401 0
0.159101 0.239824 0
-1.1185 0.210472 0
-2.43208 0.06218 0
-10.4398 0.487082 0
-1.19384 0.475189 0
-6.16855 2.9781 0
0.0253193 0.207885 0
-1.38458 0.198241 0
-0.093207 0.448069 0
-0.169785 -0.372651 0
-1.49391 0.477061 0
-6.8822 2.96414 0
-0.0316902 0.427313 0
-1.30634 2.25543 0
-2.30426 1.25073 0
-3.03565 6.81239 0
-0.472687 -0.0158634 0
-0.537694 1.46708 0
-3.05926 6.09513 0
-0.568125 10.3985 0
-0.538882 1.13862 0
-0.131437 2.3922 0
0.364936 0.117895 0
-0.228266 1.34384 0
-0.462406 0.055443 0
-0.219509 0.0754677 0
-0.232741 1.04164 0
-0.121019 2.09369 0
-0.219751 -0.106887 0
-0.0416456 0.0596826 0
10.3569 0.512344 0
2.33538 0.0995642 0
6.10859 2.99429 0
1.15449 0.492588 0
2.04024 0.0661848 0
0.0203349 0.0215545 0
1.05413 0.179765 0
-0.103564 0.1887 0
6.79183 2.98811 0
1.43797 0.494517 0
1.25759 2.27616 0
-0.0222648 0.419975 0
1.31266 0.176294 0
0.0480347 0.194345 0
0.114458 -0.387975 0
0.0877457 0.38923 0
0.460327 10.3907 0
2.97553 6.09786 0
0.100009 2.38924 0
0.488402 1.16299 0
2.96058 6.8032 0
2.25859 1.24394 0
0.483424 1.4915 0
0.358578 0.0177263 0
0.0439674 2.09032 0
0.165702 1.04942 0
-6.36406e-05 0.0559089 0
0.169563 -0.0917265 0
0.163646 1.35239 0
-0.406512 0.154249 0
0.164658 0.0820049 0
0.420845 0.0677904 0
-0.00862507 -0.0271158 0
-2.08184 0.0197963 0
0.0068874 0.111286 0
-1.07696 0.136938 0
-2.37954 0.0680894 0
-10.4075 0.467307 0
-1.19562 0.456276 0
-6.10874 2.94973 0
-0.00845285 0.100365 0
-1.33858 0.131786 0
-0.0758218 0.42848 0
-0.182333 -0.447854 0
-1.47393 0.45069 0
-6.79003 2.92584 0
-0.0468217 0.34006 0
-1.28244 2.23934 0
-2.31347 1.20389 0
-2.99637 6.75459 0
-0.391685 -0.0567083 0
-0.52378 1.4301 0
-2.99599 6.07443 0
-0.522755 10.3284 0
-0.524803 1.12961 0
-0.148092 2.32612 0
0.366032 0.0836059 0
-0.191362 1.29484 0
-0.40136 0.0372193 0
-0.18816 0.0291862 0
-0.19184 1.02112 0
-0.0774704 2.03737 0
-0.187864 -0.131787 0
-0.0339383 0.0217827 0
10.367 0.463443 0
2.37688 0.0942192 0
6.0855 2.95412 0
1.13416 0.490155 0
2.08509 0.0446448 0
0.0538123 -0.00256584 0
1.02939 0.163044 0
-0.115544 0.16521 0
6.79784 2.93755 0
1.48068 0.486639 0
1.24061 2.2401 0
-0.00672958 0.366489 0
1.34798 0.161489 0
0.0811883 0.16005 0
0.129728 -0.420866 0
0.0549506 0.4165 0
0.550637 10.3386 0
2.99835 6.07108 0
0.100337 2.33281 0
0.503294 1.12251 0
2.97288 6.7626 0
2.25474 1.24135 0
0.501189 1.4143 0
0.446167 -0.0314975 0
0.0915162 2.04404 0
0.200079 1.02788 0
0.00894563 0.0237721 0
0.179738 -0.129602 0
0.194299 1.29474 0
-0.428626 0.0995274 0
0.183369 0.0358808 0
0.416515 0.0644385 0
-15.1054 0.709496 0
-11.8156 0.654479 0
-16.697 8.25224 0
-11.3912 11.728 0
-11.1475 0.629625 0
-0.727788 0.656759 0
-10.9127 10.8631 0
-0.65374 11.0651 0
-19.3912 7.98213 0
-12.084 12.0093 0
-9.09723 9.10599 0
-8.07432 19.3819 0
-11.8093 11.3562 0
-0.724585 11.7317 0
-8.33601 16.5813 0
-0.7413 15.0518 0
0.602452 0.65545 0
11.0123 0.627086 0
0.602091 11.0636 0
10.8401 10.8956 0
11.6742 0.648091 0
15.0363 0.697475 0
11.3213 11.7599 0
16.5175 8.319 0
0.644706 11.7289 0
11.7214 11.3683 0
0.681751 15.0592 0
8.22906 16.5853 0
12.0013 12.0346 0
19.2681 8.03878 0
7.95712 19.3504 0
9.10475 9.10211 0
-9.08378 -9.25442 0
-8.03505 -19.3643 0
-19.2661 -8.03526 0
-12.0697 -12.1043 0
-8.31455 -16.6245 0
-0.747056 -15.183 0
-11.7905 -11.442 0
-0.734512 -11.7709 0
-16.6231 -8.32376 0
-11.3713 -11.8164 0
-15.1132 -0.817112 0
-11.7472 -0.766039 0
-10.9024 -10.9565 0
-0.647825 -11.1094 0
-11.0848 -0.721181 0
-0.684801 -0.703942 0
0.684573 -15.1281 0
8.30794 -16.6096 0
0.63563 -11.7713 0
11.7491 -11.4174 0
8.02758 -19.3599 0
9.09427 -9.19451 0
12.0239 -12.0973 0
19.3408 -8.05205 0
0.614851 -11.1096 0
10.8847 -10.9363 0
0.644063 -0.705502 0
11.0545 -0.702435 0
11.3574 -11.8175 0
16.5762 -8.32365 0
11.7197 -0.745959 0
15.0548 -0.783029 0
-9.13182 -9.08799 0
-8.06466 -19.2653 0
-19.4101 -7.94583 0
-12.085 -12.0306 0
-8.34464 -16.6007 0
-0.759635 -15.0816 0
-11.8042 -11.3408 0
-0.730638 -11.7321 0
-16.7149 -8.21382 0
-11.4141 -11.7427 0
-15.1688 -0.752527 0
-11.8173 -0.73537 0
-10.9328 -10.8501 0
-0.660595 -11.0688 0
-11.1497 -0.6389 0
-0.72838 -0.673177 0
0.715113 -15.094 0
8.22763 -16.6082 0
0.662364 -11.7316 0
11.7188 -11.3569 0
7.93882 -19.252 0
9.16248 -9.0672 0
12.0068 -12.0553 0
19.2712 -8.02017 0
0.616558 -11.0696 0
10.8588 -10.8881 0
0.601428 -0.673248 0
11.0125 -0.635422 0
11.3444 -11.7763 0
16.5318 -8.29962 0
11.6742 -0.72185 0
15.0913 -0.733914 0
-9.16268 -9.08664 0
-8.03427 -19.3825 0
-19.4369 -8.06708 0
-12.0609 -12.0765 0
-8.30464 -16.6884 0
-0.757744 -15.0938 0
-11.7796 -11.3841 0
-0.702143 -11.8076 0
-16.6371 -8.32852 0
-11.4073 -11.8017 0
-15.1097 -0.739529 0
-11.7825 -0.719966 0
-10.9143 -10.9057 0
-0.677383 -11.1396 0
-11.1161 -0.648103 0
-0.704222 -0.722639 0
0.704974 -15.1569 0
8.17045 -16.7053 0
0.688141 -11.8089 0
11.6993 -11.4063 0
7.90227 -19.4009 0
9.04777 -9.11992 0
11.9873 -12.077 0
19.2246 -8.05526 0
0.591481 -11.1414 0
10.8065 -10.9251 0
0.625959 -0.722868 0
11.0262 -0.656189 0
11.2974 -11.7962 0
16.5605 -8.33509 0
11.6899 -0.725511 0
15.0441 -0.753179 0
-15.109 0.683158 0
-11.7797 0.649059 0
-16.6338 8.23328 0
-11.4186 11.7282 0
-11.1143 0.607503 0
-0.703586 0.607325 0
-10.946 10.8459 0
-0.677032 11.0162 0
-19.3944 7.96086 0
-12.0842 12.0079 0
-9.1375 9.12283 0
-8.08875 19.2821 0
-11.8089 11.327 0
-0.703963 11.6775 0
-8.36801 16.5324 0
-0.764652 15.0574 0
0.625339 0.606739 0
11.027 0.620586 0
0.585672 11.0142 0
10.8438 10.858 0
11.6893 0.667023 0
15.0609 0.720743 0
11.313 11.7174 0
16.5712 8.22519 0
0.666229 11.6764 0
11.7326 11.3437 0
0.667 15.0735 0
8.25449 16.5204 0
12.0113 12.0056 0
19.2195 7.93721 0
7.97373 19.2593 0
9.04392 9.13927 0
-15.1073 0.65613 0
-11.748 0.626069 0
-16.6189 8.22797 0
-11.3538 11.6889 0
-11.0845 0.555297 0
-0.68384 0.625426 0
-10.8626 10.8172 0
-0.645818 11.0389 0
-19.2917 7.94953 0
-12.0424 11.9701 0
-9.12959 8.97864 0
-7.95407 19.2745 0
-11.755 11.2984 0
-0.735487 11.7069 0
-8.22371 16.5819 0
-0.738061 15.0312 0
0.646239 0.62422 0
11.056 0.552969 0
0.622894 11.039 0
10.8563 10.8092 0
11.7226 0.622813 0
15.0408 0.639368 0
11.3491 11.7069 0
16.5708 8.23452 0
0.654629 11.7061 0
11.7196 11.2874 0
0.724302 15.0115 0
8.24801 16.5996 0
12.0015 11.9814 0
19.3668 7.97246 0
7.9789 19.2929 0
9.08813 9.00752 0
SCALARS solution double 1
LOOKUP_TABLE default