# vtk DataFile Version 3.0
#This file was generated by the deal.II library on 2020/8/22 at 21:53:33
ASCII
DATASET UNSTRUCTURED_GRID

POINTS 128 double
-1 -1 0
-1 -0.5 0
-0.5 -1 0
-0.5 -0.5 0
-1 -1 0
-0.5 -1 0
-1 -0.5 0
-0.5 -0.5 0
-0.5 -1 0
-0.5 -0.5 0
0 -1 0
0 -0.5 0
-0.5 -1 0
0 -1 0
-0.5 -0.5 0
0 -0.5 0
-1 -0.5 0
-1 0 0
-0.5 -0.5 0
-0.5 0 0
-1 -0.5 0
-0.5 -0.5 0
-1 0 0
-0.5 0 0
-0.5 -0.5 0
-0.5 0 0
0 -0.5 0
0 0 0
-0.5 -0.5 0
0 -0.5 0
-0.5 0 0
0 0 0
0 -1 0
0 -0.5 0
0.5 -1 0
0.5 -0.5 0
0 -1 0
0.5 -1 0
0 -0.5 0
0.5 -0.5 0
0.5 -1 0
0.5 -0.5 0
1 -1 0
1 -0.5 0
0.5 -1 0
1 -1 0
0.5 -0.5 0
1 -0.5 0
0 -0.5 0
0 0 0
0.5 -0.5 0
0.5 0 0
0 -0.5 0
0.5 -0.5 0
0 0 0
0.5 0 0
0.5 -0.5 0
0.5 0 0
1 -0.5 0
1 0 0
0.5 -0.5 0
1 -0.5 0
0.5 0 0
1 0 0
-1 0 0
-1 0.5 0
-0.5 0 0
-0.5 0.5 0
-1 0 0
-0.5 0 0
-1 0.5 0
-0.5 0.5 0
-0.5 0 0
-0.5 0.5 0
0 0 0
0 0.5 0
-0.5 0 0
0 0 0
-0.5 0.5 0
0 0.5 0
-1 0.5 0
-1 1 0
-0.5 0.5 0
-0.5 1 0
-1 0.5 0
-0.5 0.5 0
-1 1 0
-0.5 1 0
-0.5 0.5 0
-0.5 1 0
0 0.5 0
0 1 0
-0.5 0.5 0
0 0.5 0
-0.5 1 0
0 1 0
0 0 0
0 0.5 0
0.5 0 0
0.5 0.5 0
0 0 0
0.5 0 0
0 0.5 0
0.5 0.5 0
0.5 0 0
0.5 0.5 0
1 0 0
1 0.5 0
0.5 0 0
1 0 0
0.5 0.5 0
1 0.5 0
0 0.5 0
0 1 0
0.5 0.5 0
0.5 1 0
0 0.5 0
0.5 0.5 0
0 1 0
0.5 1 0
0.5 0.5 0
0.5 1 0
1 0.5 0
1 1 0
0.5 0.5 0
1 0.5 0
0.5 1 0
1 1 0

CELLS 64 192
2	0	1
2	2	3
2	4	5
2	6	7
2	8	9
2	10	11
2	12	13
2	14	15
2	16	17
2	18	19
2	20	21
2	22	23
2	24	25
2	26	27
2	28	29
2	30	31
2	32	33
2	34	35
2	36	37
2	38	39
2	40	41
2	42	43
2	44	45
2	46	47
2	48	49
2	50	51
2	52	53
2	54	55
2	56	57
2	58	59
2	60	61
2	62	63
2	64	65
2	66	67
2	68	69
2	70	71
2	72	73
2	74	75
2	76	77
2	78	79
2	80	81
2	82	83
2	84	85
2	86	87
2	88	89
2	90	91
2	92	93
2	94	95
2	96	97
2	98	99
2	100	101
2	102	103
2	104	105
2	106	107
2	108	109
2	110	111
2	112	113
2	114	115
2	116	117
2	118	119
2	120	121
2	122	123
2	124	125
2	126	127

CELL_TYPES 64
 3 3 3 3 3 3 3 3 3 3 3 3 3 3 3 3 3 3 3 3 3 3 3 3 3 3 3 3 3 3 3 3 3 3 3 3 3 3 3 3 3 3 3 3 3 3 3 3 3 3 3 3 3 3 3 3 3 3 3 3 3 3 3 3
POINT_DATA 128
SCALARS u_hat double 1
LOOKUP_TABLE default
15.6973 18.5129 11.5983 18.7843 14.4294 12.7172 16.7716 18.4679 11.5983 18.7843 10.4678 11.3258 12.761 10.6407 18.5744 9.93866 18.478 13.6306 18.6699 11.9038 16.7716 18.4679 13.703 13.1087 18.6699 11.9038 11.3425 8.81656 18.5744 9.93866 13.1417 8.75858 10.4678 11.3258 6.34942 10.659 10.6708 8.01593 10.0428 10.7158 6.34942 10.659 -0.00191169 0.00787946 8.04236 -0.2064 10.8394 -0.987049 11.3425 8.81656 10.7606 3.94381 10.0428 10.7158 8.81141 5.04103 10.7606 3.94381 0.00787946 -0.00191169 10.8394 -0.987049 5.02364 -0.0499493 13.5976 8.43452 11.797 12.8019 13.703 13.1087 7.31834 12.758 11.797 12.8019 8.85148 6.04534 13.1417 8.75858 12.6169 4.88359 8.36959 0.092067 12.7025 -0.599333 7.31834 12.758 -0.00191169 0.00787946 12.7025 -0.599333 6.03768 -0.0312544 12.6169 4.88359 0.00787946 -0.00191169 8.85148 6.04534 4.82003 2.62541 8.81141 5.04103 5.65072 2.54584 4.82003 2.62541 1.0917e-06 -2.925e-07 5.02364 -0.0499493 2.53739 0.0321612 6.03768 -0.0312544 2.62159 -0.0303014 5.65072 2.54584 1.0917e-06 -2.925e-07 2.62159 -0.0303014 5.59588e-16 -1.49941e-16 2.53739 0.0321612 5.59588e-16 -1.49941e-16 
