# vtk DataFile Version 3.0
#This file was generated by the deal.II library on 2020/8/22 at 21:54:13
ASCII
DATASET UNSTRUCTURED_GRID

POINTS 16384 double
-1 -1 0
-0.979167 -1 0
-0.958333 -1 0
-0.9375 -1 0
-1 -0.979167 0
-0.979167 -0.979167 0
-0.958333 -0.979167 0
-0.9375 -0.979167 0
-1 -0.958333 0
-0.979167 -0.958333 0
-0.958333 -0.958333 0
-0.9375 -0.958333 0
-1 -0.9375 0
-0.979167 -0.9375 0
-0.958333 -0.9375 0
-0.9375 -0.9375 0
-0.9375 -1 0
-0.916667 -1 0
-0.895833 -1 0
-0.875 -1 0
-0.9375 -0.979167 0
-0.916667 -0.979167 0
-0.895833 -0.979167 0
-0.875 -0.979167 0
-0.9375 -0.958333 0
-0.916667 -0.958333 0
-0.895833 -0.958333 0
-0.875 -0.958333 0
-0.9375 -0.9375 0
-0.916667 -0.9375 0
-0.895833 -0.9375 0
-0.875 -0.9375 0
-1 -0.9375 0
-0.979167 -0.9375 0
-0.958333 -0.9375 0
-0.9375 -0.9375 0
-1 -0.916667 0
-0.979167 -0.916667 0
-0.958333 -0.916667 0
-0.9375 -0.916667 0
-1 -0.895833 0
-0.979167 -0.895833 0
-0.958333 -0.895833 0
-0.9375 -0.895833 0
-1 -0.875 0
-0.979167 -0.875 0
-0.958333 -0.875 0
-0.9375 -0.875 0
-0.9375 -0.9375 0
-0.916667 -0.9375 0
-0.895833 -0.9375 0
-0.875 -0.9375 0
-0.9375 -0.916667 0
-0.916667 -0.916667 0
-0.895833 -0.916667 0
-0.875 -0.916667 0
-0.9375 -0.895833 0
-0.916667 -0.895833 0
-0.895833 -0.895833 0
-0.875 -0.895833 0
-0.9375 -0.875 0
-0.916667 -0.875 0
-0.895833 -0.875 0
-0.875 -0.875 0
-0.875 -1 0
-0.854167 -1 0
-0.833333 -1 0
-0.8125 -1 0
-0.875 -0.979167 0
-0.854167 -0.979167 0
-0.833333 -0.979167 0
-0.8125 -0.979167 0
-0.875 -0.958333 0
-0.854167 -0.958333 0
-0.833333 -0.958333 0
-0.8125 -0.958333 0
-0.875 -0.9375 0
-0.854167 -0.9375 0
-0.833333 -0.9375 0
-0.8125 -0.9375 0
-0.8125 -1 0
-0.791667 -1 0
-0.770833 -1 0
-0.75 -1 0
-0.8125 -0.979167 0
-0.791667 -0.979167 0
-0.770833 -0.979167 0
-0.75 -0.979167 0
-0.8125 -0.958333 0
-0.791667 -0.958333 0
-0.770833 -0.958333 0
-0.75 -0.958333 0
-0.8125 -0.9375 0
-0.791667 -0.9375 0
-0.770833 -0.9375 0
-0.75 -0.9375 0
-0.875 -0.9375 0
-0.854167 -0.9375 0
-0.833333 -0.9375 0
-0.8125 -0.9375 0
-0.875 -0.916667 0
-0.854167 -0.916667 0
-0.833333 -0.916667 0
-0.8125 -0.916667 0
-0.875 -0.895833 0
-0.854167 -0.895833 0
-0.833333 -0.895833 0
-0.8125 -0.895833 0
-0.875 -0.875 0
-0.854167 -0.875 0
-0.833333 -0.875 0
-0.8125 -0.875 0
-0.8125 -0.9375 0
-0.791667 -0.9375 0
-0.770833 -0.9375 0
-0.75 -0.9375 0
-0.8125 -0.916667 0
-0.791667 -0.916667 0
-0.770833 -0.916667 0
-0.75 -0.916667 0
-0.8125 -0.895833 0
-0.791667 -0.895833 0
-0.770833 -0.895833 0
-0.75 -0.895833 0
-0.8125 -0.875 0
-0.791667 -0.875 0
-0.770833 -0.875 0
-0.75 -0.875 0
-1 -0.875 0
-0.979167 -0.875 0
-0.958333 -0.875 0
-0.9375 -0.875 0
-1 -0.854167 0
-0.979167 -0.854167 0
-0.958333 -0.854167 0
-0.9375 -0.854167 0
-1 -0.833333 0
-0.979167 -0.833333 0
-0.958333 -0.833333 0
-0.9375 -0.833333 0
-1 -0.8125 0
-0.979167 -0.8125 0
-0.958333 -0.8125 0
-0.9375 -0.8125 0
-0.9375 -0.875 0
-0.916667 -0.875 0
-0.895833 -0.875 0
-0.875 -0.875 0
-0.9375 -0.854167 0
-0.916667 -0.854167 0
-0.895833 -0.854167 0
-0.875 -0.854167 0
-0.9375 -0.833333 0
-0.916667 -0.833333 0
-0.895833 -0.833333 0
-0.875 -0.833333 0
-0.9375 -0.8125 0
-0.916667 -0.8125 0
-0.895833 -0.8125 0
-0.875 -0.8125 0
-1 -0.8125 0
-0.979167 -0.8125 0
-0.958333 -0.8125 0
-0.9375 -0.8125 0
-1 -0.791667 0
-0.979167 -0.791667 0
-0.958333 -0.791667 0
-0.9375 -0.791667 0
-1 -0.770833 0
-0.979167 -0.770833 0
-0.958333 -0.770833 0
-0.9375 -0.770833 0
-1 -0.75 0
-0.979167 -0.75 0
-0.958333 -0.75 0
-0.9375 -0.75 0
-0.9375 -0.8125 0
-0.916667 -0.8125 0
-0.895833 -0.8125 0
-0.875 -0.8125 0
-0.9375 -0.791667 0
-0.916667 -0.791667 0
-0.895833 -0.791667 0
-0.875 -0.791667 0
-0.9375 -0.770833 0
-0.916667 -0.770833 0
-0.895833 -0.770833 0
-0.875 -0.770833 0
-0.9375 -0.75 0
-0.916667 -0.75 0
-0.895833 -0.75 0
-0.875 -0.75 0
-0.875 -0.875 0
-0.854167 -0.875 0
-0.833333 -0.875 0
-0.8125 -0.875 0
-0.875 -0.854167 0
-0.854167 -0.854167 0
-0.833333 -0.854167 0
-0.8125 -0.854167 0
-0.875 -0.833333 0
-0.854167 -0.833333 0
-0.833333 -0.833333 0
-0.8125 -0.833333 0
-0.875 -0.8125 0
-0.854167 -0.8125 0
-0.833333 -0.8125 0
-0.8125 -0.8125 0
-0.8125 -0.875 0
-0.791667 -0.875 0
-0.770833 -0.875 0
-0.75 -0.875 0
-0.8125 -0.854167 0
-0.791667 -0.854167 0
-0.770833 -0.854167 0
-0.75 -0.854167 0
-0.8125 -0.833333 0
-0.791667 -0.833333 0
-0.770833 -0.833333 0
-0.75 -0.833333 0
-0.8125 -0.8125 0
-0.791667 -0.8125 0
-0.770833 -0.8125 0
-0.75 -0.8125 0
-0.875 -0.8125 0
-0.854167 -0.8125 0
-0.833333 -0.8125 0
-0.8125 -0.8125 0
-0.875 -0.791667 0
-0.854167 -0.791667 0
-0.833333 -0.791667 0
-0.8125 -0.791667 0
-0.875 -0.770833 0
-0.854167 -0.770833 0
-0.833333 -0.770833 0
-0.8125 -0.770833 0
-0.875 -0.75 0
-0.854167 -0.75 0
-0.833333 -0.75 0
-0.8125 -0.75 0
-0.8125 -0.8125 0
-0.791667 -0.8125 0
-0.770833 -0.8125 0
-0.75 -0.8125 0
-0.8125 -0.791667 0
-0.791667 -0.791667 0
-0.770833 -0.791667 0
-0.75 -0.791667 0
-0.8125 -0.770833 0
-0.791667 -0.770833 0
-0.770833 -0.770833 0
-0.75 -0.770833 0
-0.8125 -0.75 0
-0.791667 -0.75 0
-0.770833 -0.75 0
-0.75 -0.75 0
-0.75 -1 0
-0.729167 -1 0
-0.708333 -1 0
-0.6875 -1 0
-0.75 -0.979167 0
-0.729167 -0.979167 0
-0.708333 -0.979167 0
-0.6875 -0.979167 0
-0.75 -0.958333 0
-0.729167 -0.958333 0
-0.708333 -0.958333 0
-0.6875 -0.958333 0
-0.75 -0.9375 0
-0.729167 -0.9375 0
-0.708333 -0.9375 0
-0.6875 -0.9375 0
-0.6875 -1 0
-0.666667 -1 0
-0.645833 -1 0
-0.625 -1 0
-0.6875 -0.979167 0
-0.666667 -0.979167 0
-0.645833 -0.979167 0
-0.625 -0.979167 0
-0.6875 -0.958333 0
-0.666667 -0.958333 0
-0.645833 -0.958333 0
-0.625 -0.958333 0
-0.6875 -0.9375 0
-0.666667 -0.9375 0
-0.645833 -0.9375 0
-0.625 -0.9375 0
-0.75 -0.9375 0
-0.729167 -0.9375 0
-0.708333 -0.9375 0
-0.6875 -0.9375 0
-0.75 -0.916667 0
-0.729167 -0.916667 0
-0.708333 -0.916667 0
-0.6875 -0.916667 0
-0.75 -0.895833 0
-0.729167 -0.895833 0
-0.708333 -0.895833 0
-0.6875 -0.895833 0
-0.75 -0.875 0
-0.729167 -0.875 0
-0.708333 -0.875 0
-0.6875 -0.875 0
-0.6875 -0.9375 0
-0.666667 -0.9375 0
-0.645833 -0.9375 0
-0.625 -0.9375 0
-0.6875 -0.916667 0
-0.666667 -0.916667 0
-0.645833 -0.916667 0
-0.625 -0.916667 0
-0.6875 -0.895833 0
-0.666667 -0.895833 0
-0.645833 -0.895833 0
-0.625 -0.895833 0
-0.6875 -0.875 0
-0.666667 -0.875 0
-0.645833 -0.875 0
-0.625 -0.875 0
-0.625 -1 0
-0.604167 -1 0
-0.583333 -1 0
-0.5625 -1 0
-0.625 -0.979167 0
-0.604167 -0.979167 0
-0.583333 -0.979167 0
-0.5625 -0.979167 0
-0.625 -0.958333 0
-0.604167 -0.958333 0
-0.583333 -0.958333 0
-0.5625 -0.958333 0
-0.625 -0.9375 0
-0.604167 -0.9375 0
-0.583333 -0.9375 0
-0.5625 -0.9375 0
-0.5625 -1 0
-0.541667 -1 0
-0.520833 -1 0
-0.5 -1 0
-0.5625 -0.979167 0
-0.541667 -0.979167 0
-0.520833 -0.979167 0
-0.5 -0.979167 0
-0.5625 -0.958333 0
-0.541667 -0.958333 0
-0.520833 -0.958333 0
-0.5 -0.958333 0
-0.5625 -0.9375 0
-0.541667 -0.9375 0
-0.520833 -0.9375 0
-0.5 -0.9375 0
-0.625 -0.9375 0
-0.604167 -0.9375 0
-0.583333 -0.9375 0
-0.5625 -0.9375 0
-0.625 -0.916667 0
-0.604167 -0.916667 0
-0.583333 -0.916667 0
-0.5625 -0.916667 0
-0.625 -0.895833 0
-0.604167 -0.895833 0
-0.583333 -0.895833 0
-0.5625 -0.895833 0
-0.625 -0.875 0
-0.604167 -0.875 0
-0.583333 -0.875 0
-0.5625 -0.875 0
-0.5625 -0.9375 0
-0.541667 -0.9375 0
-0.520833 -0.9375 0
-0.5 -0.9375 0
-0.5625 -0.916667 0
-0.541667 -0.916667 0
-0.520833 -0.916667 0
-0.5 -0.916667 0
-0.5625 -0.895833 0
-0.541667 -0.895833 0
-0.520833 -0.895833 0
-0.5 -0.895833 0
-0.5625 -0.875 0
-0.541667 -0.875 0
-0.520833 -0.875 0
-0.5 -0.875 0
-0.75 -0.875 0
-0.729167 -0.875 0
-0.708333 -0.875 0
-0.6875 -0.875 0
-0.75 -0.854167 0
-0.729167 -0.854167 0
-0.708333 -0.854167 0
-0.6875 -0.854167 0
-0.75 -0.833333 0
-0.729167 -0.833333 0
-0.708333 -0.833333 0
-0.6875 -0.833333 0
-0.75 -0.8125 0
-0.729167 -0.8125 0
-0.708333 -0.8125 0
-0.6875 -0.8125 0
-0.6875 -0.875 0
-0.666667 -0.875 0
-0.645833 -0.875 0
-0.625 -0.875 0
-0.6875 -0.854167 0
-0.666667 -0.854167 0
-0.645833 -0.854167 0
-0.625 -0.854167 0
-0.6875 -0.833333 0
-0.666667 -0.833333 0
-0.645833 -0.833333 0
-0.625 -0.833333 0
-0.6875 -0.8125 0
-0.666667 -0.8125 0
-0.645833 -0.8125 0
-0.625 -0.8125 0
-0.75 -0.8125 0
-0.729167 -0.8125 0
-0.708333 -0.8125 0
-0.6875 -0.8125 0
-0.75 -0.791667 0
-0.729167 -0.791667 0
-0.708333 -0.791667 0
-0.6875 -0.791667 0
-0.75 -0.770833 0
-0.729167 -0.770833 0
-0.708333 -0.770833 0
-0.6875 -0.770833 0
-0.75 -0.75 0
-0.729167 -0.75 0
-0.708333 -0.75 0
-0.6875 -0.75 0
-0.6875 -0.8125 0
-0.666667 -0.8125 0
-0.645833 -0.8125 0
-0.625 -0.8125 0
-0.6875 -0.791667 0
-0.666667 -0.791667 0
-0.645833 -0.791667 0
-0.625 -0.791667 0
-0.6875 -0.770833 0
-0.666667 -0.770833 0
-0.645833 -0.770833 0
-0.625 -0.770833 0
-0.6875 -0.75 0
-0.666667 -0.75 0
-0.645833 -0.75 0
-0.625 -0.75 0
-0.625 -0.875 0
-0.604167 -0.875 0
-0.583333 -0.875 0
-0.5625 -0.875 0
-0.625 -0.854167 0
-0.604167 -0.854167 0
-0.583333 -0.854167 0
-0.5625 -0.854167 0
-0.625 -0.833333 0
-0.604167 -0.833333 0
-0.583333 -0.833333 0
-0.5625 -0.833333 0
-0.625 -0.8125 0
-0.604167 -0.8125 0
-0.583333 -0.8125 0
-0.5625 -0.8125 0
-0.5625 -0.875 0
-0.541667 -0.875 0
-0.520833 -0.875 0
-0.5 -0.875 0
-0.5625 -0.854167 0
-0.541667 -0.854167 0
-0.520833 -0.854167 0
-0.5 -0.854167 0
-0.5625 -0.833333 0
-0.541667 -0.833333 0
-0.520833 -0.833333 0
-0.5 -0.833333 0
-0.5625 -0.8125 0
-0.541667 -0.8125 0
-0.520833 -0.8125 0
-0.5 -0.8125 0
-0.625 -0.8125 0
-0.604167 -0.8125 0
-0.583333 -0.8125 0
-0.5625 -0.8125 0
-0.625 -0.791667 0
-0.604167 -0.791667 0
-0.583333 -0.791667 0
-0.5625 -0.791667 0
-0.625 -0.770833 0
-0.604167 -0.770833 0
-0.583333 -0.770833 0
-0.5625 -0.770833 0
-0.625 -0.75 0
-0.604167 -0.75 0
-0.583333 -0.75 0
-0.5625 -0.75 0
-0.5625 -0.8125 0
-0.541667 -0.8125 0
-0.520833 -0.8125 0
-0.5 -0.8125 0
-0.5625 -0.791667 0
-0.541667 -0.791667 0
-0.520833 -0.791667 0
-0.5 -0.791667 0
-0.5625 -0.770833 0
-0.541667 -0.770833 0
-0.520833 -0.770833 0
-0.5 -0.770833 0
-0.5625 -0.75 0
-0.541667 -0.75 0
-0.520833 -0.75 0
-0.5 -0.75 0
-1 -0.75 0
-0.979167 -0.75 0
-0.958333 -0.75 0
-0.9375 -0.75 0
-1 -0.729167 0
-0.979167 -0.729167 0
-0.958333 -0.729167 0
-0.9375 -0.729167 0
[...]
POINT_DATA 16384
VECTORS gradient double
-0.000368783 -0.000369046 0
-0.000592776 -0.000616342 0
-0.000925256 -0.00100485 0
-0.00140691 -0.0016011 0
-0.000616551 -0.000592858 0
-0.000984043 -0.000984039 0
-0.00153365 -0.0016063 0
-0.00233202 -0.00255513 0
-0.00100477 -0.00092521 0
-0.00160626 -0.00153372 0
-0.00250469 -0.00250468 0
-0.00380934 -0.00398263 0
-0.00160151 -0.00140665 0
-0.00255516 -0.00233205 0
-0.00398249 -0.0038092 0
-0.00605669 -0.0060568 0
-0.00140846 -0.00160089 0
-0.0020922 -0.00250035 0
-0.00303474 -0.00381778 0
-0.00429403 -0.00570264 0
-0.00233415 -0.00255736 0
-0.00346756 -0.00399346 0
-0.00503049 -0.00609733 0
-0.0071193 -0.00910703 0
-0.00381255 -0.00398708 0
-0.00566367 -0.006226 0
-0.00821599 -0.00950612 0
-0.0116269 -0.0141984 0
-0.00606163 -0.00606386 0
-0.00900492 -0.00946927 0
-0.0130636 -0.0144584 0
-0.018488 -0.0215956 0
-0.00160095 -0.00140829 0
-0.00255731 -0.00233425 0
-0.003987 -0.00381249 0
-0.00606388 -0.00606184 0
-0.00250046 -0.00209193 0
-0.00399344 -0.00346768 0
-0.00622596 -0.00566355 0
-0.00946939 -0.00900519 0
-0.00381792 -0.00303439 0
-0.00609728 -0.00503065 0
-0.00950603 -0.00821584 0
-0.0144586 -0.013064 0
-0.00570285 -0.00429359 0
-0.009107 -0.00711952 0
-0.0141983 -0.0116267 0
-0.0215959 -0.0184885 0
-0.00606881 -0.00606889 0
-0.00901547 -0.00947693 0
-0.0130785 -0.0144699 0
-0.0185085 -0.0216125 0
-0.00947692 -0.00901555 0
-0.0140784 -0.0140783 0
-0.0204231 -0.0214956 0
-0.0289025 -0.0321061 0
-0.0144699 -0.0130786 0
-0.0214956 -0.0204231 0
-0.0311831 -0.0311831 0
-0.0441298 -0.0465755 0
-0.0216125 -0.0185087 0
-0.0321062 -0.0289025 0
-0.0465756 -0.04413 0
-0.0659133 -0.0659132 0
-0.00429796 -0.0057029 0
-0.00592798 -0.00833975 0
-0.00798114 -0.0119305 0
-0.0104769 -0.0167021 0
-0.00712422 -0.00909937 0
-0.00983029 -0.0133211 0
-0.0132368 -0.0190478 0
-0.0173764 -0.0266778 0
-0.0116339 -0.0141833 0
-0.0160537 -0.0207699 0
-0.0216157 -0.0296955 0
-0.028373 -0.0415957 0
-0.0184986 -0.0215718 0
-0.0255288 -0.0315919 0
-0.0343749 -0.0451679 0
-0.0451218 -0.063271 0
-0.01048 -0.0167035 0
-0.0133882 -0.0228795 0
-0.016662 -0.0306675 0
-0.0201814 -0.0402302 0
-0.0173799 -0.0266546 0
-0.0222104 -0.0365392 0
-0.0276442 -0.0489591 0
-0.0334821 -0.0642499 0
-0.0283776 -0.0415497 0
-0.0362664 -0.0569702 0
-0.0451374 -0.076328 0
-0.054665 -0.100177 0
-0.0451285 -0.0631982 0
-0.0576783 -0.0866577 0
-0.071789 -0.116103 0
-0.0869427 -0.152384 0
-0.0185191 -0.0215887 0
-0.0255562 -0.0316161 0
-0.0344109 -0.0452021 0
-0.0451679 -0.0633182 0
-0.0289185 -0.0320712 0
-0.0399085 -0.0469668 0
-0.0537359 -0.0671497 0
-0.0705332 -0.0940613 0
-0.0441535 -0.046526 0
-0.0609344 -0.068133 0
-0.0820467 -0.0974127 0
-0.107693 -0.136451 0
-0.0659478 -0.0658449 0
-0.0910133 -0.0964204 0
-0.122547 -0.137858 0
-0.160851 -0.193102 0
-0.0451746 -0.0632454 0
-0.0577359 -0.0867215 0
-0.0718592 -0.116187 0
-0.0870262 -0.152494 0
-0.070543 -0.0939545 0
-0.0901604 -0.128828 0
-0.112215 -0.172601 0
-0.135899 -0.226535 0
-0.107707 -0.1363 0
-0.137662 -0.186886 0
-0.171336 -0.250389 0
-0.207495 -0.328625 0
-0.160872 -0.192894 0
-0.205615 -0.264478 0
-0.255912 -0.35435 0
-0.309917 -0.465065 0
-0.0057041 -0.00429778 0
-0.00909944 -0.00712463 0
-0.0141828 -0.011634 0
-0.0215713 -0.0184994 0
-0.00833959 -0.00592738 0
-0.013321 -0.00983048 0
-0.02077 -0.0160534 0
-0.0315925 -0.0255292 0
-0.0119313 -0.0079804 0
-0.0190478 -0.013237 0
-0.0296952 -0.0216153 0
-0.0451679 -0.0343754 0
-0.0167015 -0.0104764 0
-0.0266776 -0.017377 0
-0.0415959 -0.0283729 0
-0.0632721 -0.0451228 0
-0.0215879 -0.0185195 0
-0.0320702 -0.0289189 0
-0.0465247 -0.0441542 0
-0.0658431 -0.0659484 0
-0.0316164 -0.0255563 0
-0.0469673 -0.0399083 0
-0.0681336 -0.0609344 0
-0.0964211 -0.0910129 0
-0.0452017 -0.034411 0
-0.0671493 -0.0537356 0
-0.0974121 -0.0820466 0
-0.137858 -0.122547 0
-0.0633187 -0.0451685 0
-0.0940623 -0.0705335 0
-0.136452 -0.107693 0
-0.193104 -0.160852 0
-0.0167058 -0.0104798 0
-0.0266548 -0.0173806 0
-0.041549 -0.0283777 0
-0.0631975 -0.0451297 0
-0.0228791 -0.0133873 0
-0.036539 -0.0222106 0
-0.0569702 -0.036266 0
-0.0866587 -0.057679 0
-0.0306689 -0.016661 0
-0.0489591 -0.0276444 0
-0.0763275 -0.0451368 0
-0.116103 -0.0717896 0
-0.040229 -0.0201811 0
-0.0642494 -0.0334828 0
-0.100177 -0.054665 0
-0.152386 -0.086944 0
-0.0632441 -0.0451754 0
-0.0939529 -0.0705436 0
-0.136297 -0.107708 0
-0.192891 -0.160873 0
-0.0867218 -0.0577362 0
-0.128829 -0.0901601 0
-0.186887 -0.137662 0
-0.264479 -0.205615 0
-0.116186 -0.0718594 0
-0.172601 -0.112215 0
-0.250388 -0.171336 0
-0.354349 -0.255911 0
-0.152494 -0.0870273 0
-0.226537 -0.135899 0
-0.328627 -0.207496 0
-0.465067 -0.309918 0
-0.0658776 -0.06588 0
-0.090919 -0.0964706 0
-0.122423 -0.137929 0
-0.160693 -0.193199 0
-0.0964704 -0.0909209 0
-0.133138 -0.133137 0
-0.179265 -0.190357 0
-0.235294 -0.266635 0
-0.137927 -0.122425 0
-0.190356 -0.179264 0
-0.256311 -0.256311 0
-0.336423 -0.359014 0
-0.193199 -0.160696 0
-0.266638 -0.235294 0
-0.359017 -0.336425 0
-0.471222 -0.47122 0
-0.160713 -0.19299 0
-0.205416 -0.264608 0
-0.25567 -0.35452 0
-0.309628 -0.465285 0
-0.235323 -0.266355 0
-0.300775 -0.365192 0
-0.374348 -0.489294 0
-0.45334 -0.642164 0
-0.336462 -0.358645 0
-0.430054 -0.491718 0
-0.535255 -0.658822 0
-0.648201 -0.864648 0
-0.471275 -0.470746 0
-0.602367 -0.645398 0
-0.749711 -0.864731 0
-0.907898 -1.13487 0
-0.192986 -0.160717 0
-0.266352 -0.235323 0
-0.358641 -0.336465 0
-0.47074 -0.471275 0
-0.264607 -0.205419 0
-0.365194 -0.300773 0
-0.491721 -0.430055 0
-0.645399 -0.602363 0
-0.354517 -0.255672 0
-0.489293 -0.374346 0
-0.658821 -0.535255 0
-0.864727 -0.749706 0
-0.465285 -0.309633 0
-0.642168 -0.45334 0
-0.864653 -0.648205 0
-1.13487 -0.907897 0
-0.470794 -0.470801 0
-0.601764 -0.64547 0
-0.748975 -0.864825 0
-0.907022 -1.13499 0
-0.645469 -0.601768 0
-0.825024 -0.825021 0
-1.02683 -1.10541 0
-1.24349 -1.45073 0
-0.864819 -0.74898 0
-1.10541 -1.02683 0
-1.37582 -1.37582 0
-1.66611 -1.8056 0
-1.13499 -0.90703 0
-1.45074 -1.24349 0
-1.8056 -1.66611 0
-2.18655 -2.18655 0
-0.0201761 -0.0402321 0
-0.0237332 -0.0516297 0
-0.0270938 -0.0648431 0
-0.029974 -0.0796988 0
-0.0334747 -0.0642252 0
-0.039382 -0.082436 0
-0.0449618 -0.103522 0
-0.0497414 -0.127252 0
-0.0546537 -0.100128 0
-0.0642984 -0.128526 0
-0.0734067 -0.161397 0
-0.0812068 -0.198399 0
-0.0869253 -0.152306 0
-0.102269 -0.195506 0
-0.116758 -0.245509 0
-0.129166 -0.3018 0
-0.0299589 -0.0796986 0
-0.0320355 -0.0958346 0
-0.0329828 -0.112776 0
-0.0325472 -0.129867 0
-0.0497218 -0.127259 0
-0.0531658 -0.152993 0
-0.0547401 -0.180053 0
-0.0540221 -0.207309 0
-0.0811782 -0.198414 0
-0.0867967 -0.238525 0
-0.0893659 -0.280718 0
-0.0881957 -0.323203 0
-0.129123 -0.301823 0
-0.13806 -0.362839 0
-0.142148 -0.427027 0
-0.140289 -0.491654 0
-0.0870088 -0.152416 0
-0.102366 -0.195646 0
-0.116867 -0.245683 0
-0.129285 -0.302011 0
-0.135872 -0.226421 0
-0.159854 -0.290641 0
-0.1825 -0.364973 0
-0.201891 -0.448652 0
-0.207455 -0.328464 0
-0.244073 -0.421623 0
-0.27865 -0.529456 0
-0.308255 -0.650843 0
-0.309858 -0.464842 0
-0.364553 -0.596678 0
-0.416198 -0.749285 0
-0.460416 -0.921068 0
-0.129242 -0.302034 0
-0.138186 -0.363091 0
-0.142276 -0.427322 0
-0.140416 -0.491992 0
-0.201825 -0.448686 0
-0.21579 -0.53939 0
-0.222179 -0.634808 0
-0.219275 -0.73088 0
-0.308157 -0.650891 0
-0.329477 -0.782476 0
-0.339232 -0.920893 0
-0.3348 -1.06027 0
-0.460273 -0.921136 0
-0.492115 -1.10736 0
-0.506684 -1.30325 0
-0.500067 -1.50049 0
-0.0325369 -0.129862 0
-0.0305694 -0.146325 0
-0.0269652 -0.161338 0
-0.0218013 -0.174065 0
-0.0540092 -0.207362 0
-0.0507343 -0.233584 0
-0.0447517 -0.257583 0
-0.0361887 -0.277842 0
-0.0881774 -0.323308 0
-0.0828245 -0.364167 0
-0.073058 -0.401597 0
-0.0590856 -0.43316 0
-0.140262 -0.49182 0
-0.131743 -0.553972 0
-0.116207 -0.610916 0
-0.0939851 -0.658925 0
-0.021812 -0.17406 0
-0.0153582 -0.183774 0
-0.00793882 -0.189856 0
6.70069e-06 -0.191914 0
-0.0362029 -0.277898 0
-0.0254842 -0.293373 0
-0.0131669 -0.3031 0
1.7417e-05 -0.306355 0
-0.0591067 -0.433271 0
-0.0416058 -0.457386 0
-0.0214988 -0.472557 0
2.0349e-05 -0.477619 0
-0.0940173 -0.659102 0
-0.0661751 -0.695784 0
-0.0341896 -0.718868 0
3.94338e-05 -0.726566 0
-0.140388 -0.492158 0
-0.131862 -0.55435 0
-0.116313 -0.611331 0
-0.0940714 -0.659371 0
-0.219234 -0.731124 0
-0.205915 -0.823517 0
-0.181633 -0.908165 0
-0.146905 -0.979535 0
-0.334739 -1.06061 0
-0.314398 -1.19465 0
-0.277324 -1.31744 0
-0.224304 -1.42098 0
-0.499978 -1.50097 0
-0.469591 -1.69067 0
-0.414216 -1.86444 0
-0.33503 -2.01098 0
-0.0941036 -0.659547 0
-0.0662377 -0.696253 0
-0.0342247 -0.71935 0
3.37887e-05 -0.727052 0
-0.146954 -0.979793 0
-0.103436 -1.03432 0
-0.0534443 -1.06864 0
5.16485e-05 -1.08008 0
-0.224377 -1.42135 0
-0.15793 -1.50046 0
-0.0816007 -1.55023 0
7.65289e-05 -1.56684 0
-0.335137 -2.01149 0
-0.235887 -2.12345 0
-0.121879 -2.19389 0
0.000112733 -2.2174 0
-0.309569 -0.465062 0
-0.364218 -0.596956 0
-0.41582 -0.74963 0
-0.460002 -0.921487 0
-0.453255 -0.641865 0
-0.533261 -0.823902 0
-0.608805 -1.03463 0
-0.673481 -1.27183 0
-0.648081 -0.864255 0
-0.762485 -1.10936 0
-0.870506 -1.3931 0
-0.962986 -1.71247 0
-0.90773 -1.13437 0
-1.06796 -1.45606 0
-1.21926 -1.82847 0
-1.34877 -2.24765 0
-0.45986 -0.921554 0
-0.491676 -1.10786 0
-0.506235 -1.30383 0
-0.499626 -1.50115 0
-0.673276 -1.27192 0
-0.719848 -1.52907 0
-0.741158 -1.79955 0
-0.731482 -2.07192 0
-0.962699 -1.71259 0
-1.02929 -2.05884 0
-1.05976 -2.42303 0
-1.04593 -2.78977 0
-1.34838 -2.2478 0
-1.44164 -2.70227 0
-1.48431 -3.18025 0
-1.46495 -3.66161 0
-0.906855 -1.13449 0
-1.06695 -1.45621 0
-1.21811 -1.82866 0
-1.34752 -2.24787 0
-1.24326 -1.4501 0
-1.46273 -1.86133 0
-1.66995 -2.33741 0
-1.84734 -2.87326 0
-1.6658 -1.80482 0
-1.95988 -2.31664 0
-2.23753 -2.90918 0
-2.47522 -3.5761 0
-2.18616 -2.18563 0
-2.57208 -2.80541 0
-2.93645 -3.52296 0
-3.24837 -4.33056 0
-1.34713 -2.24802 0
-1.44031 -2.70253 0
-1.48296 -3.18055 0
-1.46361 -3.66196 0
-1.84681 -2.87345 0
-1.97453 -3.45444 0
-2.03299 -4.06547 0
-2.00647 -4.68084 0
-2.47452 -3.57633 0
-2.64565 -4.29945 0
-2.72399 -5.05995 0
-2.68846 -5.82586 0
-3.24745 -4.33084 0
-3.47202 -5.20653 0
-3.57481 -6.12743 0
-3.52819 -7.05493 0
-0.499537 -1.50163 0
-0.469177 -1.69141 0
-0.413849 -1.86525 0
-0.33473 -2.01185 0
-0.731355 -2.07256 0
-0.686898 -2.33453 0
-0.605898 -2.57446 0
-0.490077 -2.77683 0
-1.04576 -2.79061 0
-0.98218 -3.14337 0
-0.866358 -3.46641 0
-0.700754 -3.73891 0
-1.4647 -3.66269 0
-1.37564 -4.1257 0
-1.21343 -4.54968 0
-0.981497 -4.90736 0
-0.334837 -2.01236 0
-0.235671 -2.12437 0
-0.121759 -2.19483 0
0.000129916 -2.21835 0
-0.490231 -2.7775 0
-0.34505 -2.93212 0
-0.178285 -3.02937 0
0.000153848 -3.06184 0
-0.700971 -3.73981 0
-0.493371 -3.948 0
-0.254912 -4.07894 0
0.00023316 -4.12267 0
-0.981796 -4.9085 0
-0.69103 -5.18177 0
-0.35705 -5.35361 0
0.000293766 -5.41102 0
-1.46337 -3.66304 0
-1.37439 -4.12608 0
-1.21232 -4.55009 0
-0.980589 -4.90781 0
-2.00614 -4.6822 0
-1.88415 -5.27412 0
-1.66196 -5.8161 0
-1.34431 -6.27338 0
-2.68803 -5.82751 0
-2.52455 -6.56426 0
-2.22685 -7.2388 0
-1.80124 -7.80797 0
-3.52764 -7.0569 0
-3.31308 -7.94909 0
-2.92239 -8.76591 0
-2.36388 -9.45517 0
-0.980888 -4.90895 0
-0.690374 -5.18224 0
-0.356684 -5.3541 0
0.000348957 -5.41151 0
-1.34472 -6.27481 0
-0.946461 -6.62416 0
-0.489024 -6.84384 0
0.000405138 -6.91724 0
-1.80178 -7.80972 0
-1.26814 -8.24454 0
-0.655212 -8.51795 0
0.000570599 -8.60933 0
-2.36458 -9.45725 0
-1.66426 -9.98381 0
-0.859904 -10.3149 0
0.000681166 -10.4255 0
-0.0402339 -0.0201756 0
-0.0642253 -0.0334752 0
-0.100127 -0.0546535 0
-0.152306 -0.0869262 0
-0.05163 -0.0237324 0
-0.0824357 -0.0393823 0
-0.128525 -0.0642981 0
-0.195507 -0.10227 0
-0.0648444 -0.0270932 0
-0.103522 -0.0449619 0
-0.161396 -0.0734064 0
-0.24551 -0.116759 0
-0.0796986 -0.0299739 0
-0.127251 -0.0497416 0
-0.198399 -0.0812068 0
-0.301801 -0.129167 0
-0.152415 -0.0870095 0
-0.226421 -0.135872 0
-0.328463 -0.207455 0
-0.464841 -0.309858 0
-0.195646 -0.102366 0
-0.290641 -0.159854 0
-0.421623 -0.244073 0
-0.596678 -0.364552 0
-0.245682 -0.116868 0
-0.364973 -0.1825 0
-0.529456 -0.27865 0
-0.749284 -0.416197 0
-0.302011 -0.129286 0
-0.448652 -0.201891 0
-0.650844 -0.308255 0
-0.921069 -0.460415 0
-0.0796977 -0.0299581 0
-0.127259 -0.0497215 0
-0.198414 -0.0811776 0
-0.301825 -0.129122 0
-0.0958362 -0.0320356 0
-0.152993 -0.0531659 0
-0.238524 -0.0867968 0
-0.362839 -0.13806 0
-0.112776 -0.0329834 0
-0.180052 -0.0547401 0
-0.280719 -0.0893662 0
-0.427028 -0.142147 0
-0.129869 -0.0325475 0
-0.207309 -0.0540213 0
-0.323202 -0.0881956 0
-0.491654 -0.140288 0
-0.302035 -0.129242 0
-0.448688 -0.201824 0
-0.650894 -0.308156 0
-0.921139 -0.460271 0
-0.36309 -0.138186 0
-0.539389 -0.21579 0
-0.782475 -0.329478 0
-1.10736 -0.492114 0
-0.427322 -0.142277 0
-0.634809 -0.222179 0
-0.920895 -0.339232 0
-1.30325 -0.506684 0
-0.49199 -0.140416 0
-0.730879 -0.219274 0
-1.06026 -0.334799 0
-1.50049 -0.500065 0
-0.465059 -0.309573 0
-0.641865 -0.453254 0
-0.864255 -0.648083 0
-1.13436 -0.907728 0
-0.596953 -0.364221 0
-0.823903 -0.53326 0
-1.10936 -0.762486 0
-1.45606 -1.06796 0
-0.749626 -0.415823 0
-1.03463 -0.608803 0
-1.3931 -0.870507 0
-1.82847 -1.21925 0
-0.921484 -0.460005 0
-1.27183 -0.67348 0
-1.71247 -0.962988 0
-2.24764 -1.34877 0
-1.13448 -0.906861 0
-1.4501 -1.24326 0
-1.80482 -1.66581 0
-2.18562 -2.18615 0
-1.4562 -1.06695 0
-1.86133 -1.46273 0
-2.31664 -1.95988 0
-2.8054 -2.57208 0
-1.82865 -1.21812 0
-2.33741 -1.66995 0
-2.90918 -2.23753 0
-3.52296 -2.93645 0
-2.24786 -1.34753 0
-2.87326 -1.84734 0
-3.5761 -2.47523 0
-4.33056 -3.24837 0
-0.921554 -0.459861 0
-1.27192 -0.673273 0
-1.7126 -0.962698 0
-2.2478 -1.34837 0
-1.10785 -0.491678 0
-1.52907 -0.719848 0
-2.05884 -1.02929 0
-2.70226 -1.44164 0
-1.30382 -0.506236 0
-1.79955 -0.741159 0
-2.42303 -1.05977 0
-3.18025 -1.48432 0
-1.50115 -0.499624 0
-2.07191 -0.731481 0
-2.78977 -1.04593 0
-3.6616 -1.46494 0
-2.24802 -1.34713 0
-2.87346 -1.8468 0
-3.57634 -2.47451 0
-4.33085 -3.24744 0
-2.70252 -1.44031 0
-3.45444 -1.97453 0
-4.29945 -2.64565 0
-5.20652 -3.47202 0
-3.18055 -1.48296 0
-4.06548 -2.03299 0
-5.05995 -2.72399 0
-6.12743 -3.57481 0
-3.66194 -1.46361 0
-4.68084 -2.00646 0
-5.82585 -2.68845 0
-7.05491 -3.52819 0
-0.12986 -0.0325368 0
-0.207361 -0.0540082 0
-0.323309 -0.088177 0
-0.491823 -0.14026 0
-0.146327 -0.0305708 0
-0.233584 -0.050734 0
-0.364167 -0.0828252 0
-0.553971 -0.131742 0
-0.161337 -0.0269673 0
-0.257582 -0.0447513 0
-0.401597 -0.073059 0
-0.610918 -0.116206 0
-0.174068 -0.0218023 0
-0.277842 -0.0361872 0
-0.433158 -0.0590857 0
-0.658924 -0.0939823 0
-0.492159 -0.140388 0
-0.731128 -0.219232 0
-1.06062 -0.334737 0
-1.50097 -0.499975 0
-0.554348 -0.131863 0
-0.823516 -0.205915 0
-1.19465 -0.314399 0
-1.69067 -0.469591 0
-0.611331 -0.116313 0
-0.908167 -0.181633 0
-1.31744 -0.277325 0
-1.86444 -0.414216 0
-0.659368 -0.0940708 0
-0.979532 -0.146903 0
-1.42098 -0.224303 0
-2.01098 -0.335028 0
-0.174058 -0.0218136 0
-0.277897 -0.0362018 0
-0.433271 -0.0591073 0
-0.659102 -0.0940151 0
-0.183775 -0.0153605 0
-0.293373 -0.0254833 0
-0.457386 -0.0416068 0
-0.695784 -0.066173 0
-0.189855 -0.00794133 0
-0.3031 -0.0131661 0
-0.472558 -0.0214999 0
-0.718868 -0.0341875 0
-0.191915 4.73671e-06 0
-0.306356 1.86449e-05 0
-0.477619 1.95768e-05 0
-0.726565 4.20216e-05 0
-0.659547 -0.0941036 0
-0.979795 -0.146953 0
-1.42135 -0.224377 0
-2.01149 -0.335136 0
-0.696251 -0.0662378 0
-1.03432 -0.103436 0
-1.50046 -0.15793 0
-2.12345 -0.235887 0
-0.719349 -0.0342249 0
-1.06864 -0.0534446 0
-1.55023 -0.081601 0
-2.19389 -0.12188 0
-0.72705 3.42562e-05 0
-1.08008 5.19446e-05 0
-1.56683 7.71209e-05 0
-2.21739 0.000113198 0
-1.50163 -0.499534 0
-2.07257 -0.731352 0
-2.79062 -1.04575 0
-3.6627 -1.4647 0
-1.69141 -0.469175 0
-2.33452 -0.6869 0
-3.14336 -0.98218 0
-4.12569 -1.37565 0
-1.86525 -0.413846 0
-2.57446 -0.605901 0
-3.46641 -0.866358 0
-4.54968 -1.21343 0
-2.01185 -0.334723 0
-2.77682 -0.490076 0
-3.73891 -0.700748 0
-4.90735 -0.981497 0
-3.66304 -1.46336 0
-4.68221 -2.00613 0
-5.82753 -2.68802 0
-7.05691 -3.52763 0
-4.12607 -1.37439 0
-5.27411 -1.88415 0
-6.56425 -2.52455 0
-7.94908 -3.31309 0
-4.55009 -1.21231 0
-5.81611 -1.66197 0
-7.23881 -2.22685 0
-8.76591 -2.9224 0
-4.9078 -0.980574 0
-6.27337 -1.34431 0
-7.80796 -1.80123 0
-9.45515 -2.36389 0
-2.01236 -0.334832 0
-2.77751 -0.490232 0
-3.73981 -0.700968 0
-4.9085 -0.9818 0
-2.12436 -0.235665 0
-2.93212 -0.345052 0
-3.948 -0.493368 0
-5.18176 -0.691036 0
-2.19483 -0.121752 0
-3.02937 -0.178288 0
-4.07894 -0.25491 0
-5.35361 -0.357058 0
-2.21834 0.000137992 0
-3.06184 0.000151465 0
-4.12267 0.000237385 0
-5.41102 0.000287587 0
-4.90895 -0.980876 0
-6.27482 -1.34472 0
-7.80973 -1.80177 0
-9.45725 -2.36459 0
-5.18223 -0.690362 0
-6.62416 -0.946467 0
-8.24454 -1.26814 0
-9.98381 -1.66428 0
-5.3541 -0.356671 0
-6.84384 -0.48903 0
-8.51795 -0.655207 0
-10.3149 -0.859918 0
-5.41151 0.000363647 0
-6.91724 0.000400712 0
-8.60933 0.000577966 0
-10.4255 0.000669433 0
-2.18523 -2.18523 0
-2.57101 -2.80491 0
-2.93524 -3.52234 0
-3.24704 -4.3298 0
-2.8049 -2.57101 0
-3.30007 -3.30007 0
-3.76758 -4.14416 0
-4.16778 -5.09417 0
-3.52233 -2.93524 0
-4.14416 -3.76758 0
-4.73126 -4.73126 0
-5.23383 -5.81585 0
-4.3298 -3.24704 0
-5.09417 -4.16779 0
-5.81585 -5.23383 0
-6.4336 -6.43361 0
-3.24613 -4.33008 0
-3.47062 -5.20561 0
-3.57338 -6.12637 0
-3.52678 -7.05371 0
-4.16663 -5.0945 0
-4.45475 -6.12462 0
-4.58664 -7.20793 0
-4.52684 -8.299 0
-5.23239 -5.81622 0
-5.5942 -6.99229 0
-5.75983 -8.22906 0
-5.68475 -9.47472 0
-6.43185 -6.43401 0
-6.87659 -7.73501 0
-7.08018 -9.10312 0
-6.9879 -10.4811 0
-4.33009 -3.24612 0
-5.09451 -4.16662 0
-5.81623 -5.23238 0
-6.43402 -6.43185 0
-5.20561 -3.47062 0
-6.12462 -4.45475 0
-6.99229 -5.5942 0
-7.735 -6.87659 0
-6.12637 -3.57338 0
-7.20793 -4.58665 0
-8.22906 -5.75983 0
-9.10312 -7.08019 0
-7.0537 -3.52677 0
-8.29899 -4.52684 0
-9.47471 -5.68474 0
-10.4811 -6.98789 0
-6.43227 -6.43225 0
-6.87703 -7.73291 0
-7.08063 -9.10067 0
-6.98834 -10.4783 0
-7.73291 -6.87702 0
-8.2676 -8.26761 0
-8.51239 -9.72993 0
-8.40145 -11.2028 0
-9.10069 -7.08063 0
-9.72993 -8.5124 0
-10.018 -10.018 0
-9.88745 -11.5345 0
-10.4783 -6.98833 0
-11.2028 -8.40144 0
-11.5345 -9.88744 0
-11.3842 -11.3842 0
-3.52622 -7.05568 0
-3.31176 -7.94772 0
-2.92122 -8.76441 0
-2.36292 -9.45356 0
-4.52614 -8.30129 0
-4.25083 -9.35085 0
-3.74956 -10.3117 0
-3.03298 -11.1225 0
-5.68387 -9.47731 0
-5.33812 -10.6756 0
-4.70863 -11.7725 0
-3.80878 -12.6983 0
-6.98683 -10.4839 0
-6.5618 -11.8095 0
-5.788 -13.0229 0
-4.68192 -14.047 0
-2.36362 -9.45564 0
-1.66357 -9.98212 0
-0.859514 -10.3131 0
0.000742275 -10.4238 0
-3.03386 -11.125 0
-2.13531 -11.7444 0
-1.10326 -12.1338 0
0.000903025 -12.2641 0
-3.80988 -12.701 0
-2.68147 -13.4082 0
-1.38544 -13.8528 0
0.00114324 -14.0015 0
-4.68326 -14.05 0
-3.29617 -14.8324 0
-1.70305 -15.3242 0
0.00135538 -15.4886 0
-6.98727 -10.4811 0
-6.56221 -11.8064 0
-5.78837 -13.0195 0
-4.68222 -14.0434 0
-8.40018 -11.2058 0
-7.88914 -12.6227 0
-6.95882 -13.9197 0
-5.62901 -15.0143 0
-9.88597 -11.5376 0
-9.28451 -12.9964 0
-8.18964 -14.3318 0
-6.62466 -15.4589 0
-11.3825 -11.3872 0
-10.69 -12.8271 0
-9.42934 -14.145 0
-7.62749 -15.2574 0
-4.68356 -14.0463 0
-3.29639 -14.8285 0
-1.70317 -15.3202 0
0.00133896 -15.4846 0
-5.63061 -15.0175 0
-3.96291 -15.8537 0
-2.04752 -16.3794 0
0.00166066 -16.5552 0
-6.62653 -15.4621 0
-4.66386 -16.3231 0
-2.40969 -16.8643 0
0.001904 -17.0454 0
-7.62962 -15.2606 0
-5.36982 -16.1104 0
-2.77441 -16.6446 0
0.00223488 -16.8233 0
-7.05569 -3.52621 0
-8.3013 -4.52613 0
-9.47732 -5.68386 0
-10.4839 -6.98682 0
-7.94772 -3.31175 0
-9.35085 -4.25083 0
-10.6756 -5.33812 0
-11.8095 -6.5618 0
-8.76441 -2.92122 0
-10.3117 -3.74956 0
-11.7725 -4.70863 0
-13.0229 -5.78801 0
-9.45355 -2.36291 0
-11.1225 -3.03297 0
-12.6983 -3.80877 0
-14.047 -4.68192 0
-10.4811 -6.98726 0
-11.2058 -8.40017 0
-11.5376 -9.88596 0
-11.3872 -11.3825 0
-11.8064 -6.56222 0
-12.6227 -7.88914 0
-12.9964 -9.28452 0
-12.8271 -10.69 0