# vtk DataFile Version 3.0
#This file was generated by the deal.II library on 2020/8/22 at 21:53:34
ASCII
DATASET UNSTRUCTURED_GRID

POINTS 388 double
0 0 0
0.5 0 0
0 0.5 0
0.5 0.5 0
0.5 0 0
1 0 0
0.5 0.5 0
1 0.5 0
0 0.5 0
0.5 0.5 0
0 1 0
0.5 1 0
0.5 0.5 0
1 0.5 0
0.5 1 0
1 1 0
-1 -0.25 0
-0.75 -0.25 0
-1 0 0
-0.75 0 0
-0.75 -0.25 0
-0.5 -0.25 0
-0.75 0 0
-0.5 0 0
-0.5 -0.25 0
-0.25 -0.25 0
-0.5 0 0
-0.25 0 0
-0.25 -0.25 0
0 -0.25 0
-0.25 0 0
0 0 0
-1 0 0
-0.75 0 0
-1 0.25 0
-0.75 0.25 0
-0.75 0 0
-0.5 0 0
-0.75 0.25 0
-0.5 0.25 0
-1 0.25 0
-0.75 0.25 0
-1 0.5 0
-0.75 0.5 0
-0.25 0 0
0 0 0
-0.25 0.25 0
0 0.25 0
-0.25 0.25 0
0 0.25 0
-0.25 0.5 0
0 0.5 0
-1 -1 0
-0.75 -1 0
-1 -0.75 0
-0.75 -0.75 0
-0.75 -1 0
-0.5 -1 0
-0.75 -0.75 0
-0.5 -0.75 0
-1 -0.75 0
-0.75 -0.75 0
-1 -0.5 0
-0.75 -0.5 0
-0.5 -1 0
-0.25 -1 0
-0.5 -0.75 0
-0.25 -0.75 0
-0.25 -1 0
0 -1 0
-0.25 -0.75 0
0 -0.75 0
-0.25 -0.75 0
0 -0.75 0
-0.25 -0.5 0
0 -0.5 0
0 -1 0
0.25 -1 0
0 -0.75 0
0.25 -0.75 0
0.25 -1 0
0.5 -1 0
0.25 -0.75 0
0.5 -0.75 0
0 -0.75 0
0.25 -0.75 0
0 -0.5 0
0.25 -0.5 0
0.5 -1 0
0.75 -1 0
0.5 -0.75 0
0.75 -0.75 0
0.75 -1 0
1 -1 0
0.75 -0.75 0
1 -0.75 0
0.75 -0.75 0
1 -0.75 0
0.75 -0.5 0
1 -0.5 0
0 -0.5 0
0.25 -0.5 0
0 -0.25 0
0.25 -0.25 0
0 -0.25 0
0.25 -0.25 0
0 0 0
0.25 0 0
0.25 -0.25 0
0.5 -0.25 0
0.25 0 0
0.5 0 0
0.75 -0.5 0
1 -0.5 0
0.75 -0.25 0
1 -0.25 0
0.5 -0.25 0
0.75 -0.25 0
0.5 0 0
0.75 0 0
0.75 -0.25 0
1 -0.25 0
0.75 0 0
1 0 0
-1 0.5 0
-0.75 0.5 0
-1 0.75 0
-0.75 0.75 0
-1 0.75 0
-0.75 0.75 0
-1 1 0
-0.75 1 0
-0.75 0.75 0
-0.5 0.75 0
-0.75 1 0
-0.5 1 0
-0.25 0.5 0
0 0.5 0
-0.25 0.75 0
0 0.75 0
-0.5 0.75 0
-0.25 0.75 0
-0.5 1 0
-0.25 1 0
-0.25 0.75 0
0 0.75 0
-0.25 1 0
0 1 0
-1 -0.5 0
-0.875 -0.5 0
-1 -0.375 0
-0.875 -0.375 0
-0.875 -0.5 0
-0.75 -0.5 0
-0.875 -0.375 0
-0.75 -0.375 0
-1 -0.375 0
-0.875 -0.375 0
-1 -0.25 0
-0.875 -0.25 0
-0.875 -0.375 0
-0.75 -0.375 0
-0.875 -0.25 0
-0.75 -0.25 0
-0.75 -0.5 0
-0.625 -0.5 0
-0.75 -0.375 0
-0.625 -0.375 0
-0.625 -0.5 0
-0.5 -0.5 0
-0.625 -0.375 0
-0.5 -0.375 0
-0.75 -0.375 0
-0.625 -0.375 0
-0.75 -0.25 0
-0.625 -0.25 0
-0.625 -0.375 0
-0.5 -0.375 0
-0.625 -0.25 0
-0.5 -0.25 0
-0.5 -0.5 0
-0.375 -0.5 0
-0.5 -0.375 0
-0.375 -0.375 0
-0.375 -0.5 0
-0.25 -0.5 0
-0.375 -0.375 0
-0.25 -0.375 0
-0.5 -0.375 0
-0.375 -0.375 0
-0.5 -0.25 0
-0.375 -0.25 0
-0.375 -0.375 0
-0.25 -0.375 0
-0.375 -0.25 0
-0.25 -0.25 0
-0.25 -0.5 0
-0.125 -0.5 0
-0.25 -0.375 0
-0.125 -0.375 0
-0.125 -0.5 0
0 -0.5 0
-0.125 -0.375 0
0 -0.375 0
-0.25 -0.375 0
-0.125 -0.375 0
-0.25 -0.25 0
-0.125 -0.25 0
-0.125 -0.375 0
0 -0.375 0
-0.125 -0.25 0
0 -0.25 0
-0.75 0.25 0
-0.625 0.25 0
-0.75 0.375 0
-0.625 0.375 0
-0.625 0.25 0
-0.5 0.25 0
-0.625 0.375 0
-0.5 0.375 0
-0.75 0.375 0
-0.625 0.375 0
-0.75 0.5 0
-0.625 0.5 0
-0.625 0.375 0
-0.5 0.375 0
-0.625 0.5 0
-0.5 0.5 0
-0.5 0 0
-0.375 0 0
-0.5 0.125 0
-0.375 0.125 0
-0.375 0 0
-0.25 0 0
-0.375 0.125 0
-0.25 0.125 0
-0.5 0.125 0
-0.375 0.125 0
-0.5 0.25 0
-0.375 0.25 0
-0.375 0.125 0
-0.25 0.125 0
-0.375 0.25 0
-0.25 0.25 0
-0.5 0.25 0
-0.375 0.25 0
-0.5 0.375 0
-0.375 0.375 0
-0.375 0.25 0
-0.25 0.25 0
-0.375 0.375 0
-0.25 0.375 0
-0.5 0.375 0
-0.375 0.375 0
-0.5 0.5 0
-0.375 0.5 0
-0.375 0.375 0
-0.25 0.375 0
-0.375 0.5 0
-0.25 0.5 0
-0.75 -0.75 0
-0.625 -0.75 0
-0.75 -0.625 0
-0.625 -0.625 0
-0.625 -0.75 0
-0.5 -0.75 0
-0.625 -0.625 0
-0.5 -0.625 0
-0.75 -0.625 0
-0.625 -0.625 0
-0.75 -0.5 0
-0.625 -0.5 0
-0.625 -0.625 0
-0.5 -0.625 0
-0.625 -0.5 0
-0.5 -0.5 0
-0.5 -0.75 0
-0.375 -0.75 0
-0.5 -0.625 0
-0.375 -0.625 0
-0.375 -0.75 0
-0.25 -0.75 0
-0.375 -0.625 0
-0.25 -0.625 0
-0.5 -0.625 0
-0.375 -0.625 0
-0.5 -0.5 0
-0.375 -0.5 0
-0.375 -0.625 0
-0.25 -0.625 0
-0.375 -0.5 0
-0.25 -0.5 0
0.25 -0.75 0
0.375 -0.75 0
0.25 -0.625 0
0.375 -0.625 0
0.375 -0.75 0
0.5 -0.75 0
0.375 -0.625 0
0.5 -0.625 0
0.25 -0.625 0
0.375 -0.625 0
0.25 -0.5 0
0.375 -0.5 0
0.375 -0.625 0
0.5 -0.625 0
0.375 -0.5 0
0.5 -0.5 0
0.5 -0.75 0
0.625 -0.75 0
0.5 -0.625 0
0.625 -0.625 0
0.625 -0.75 0
0.75 -0.75 0
0.625 -0.625 0
0.75 -0.625 0
0.5 -0.625 0
0.625 -0.625 0
0.5 -0.5 0
0.625 -0.5 0
0.625 -0.625 0
0.75 -0.625 0
0.625 -0.5 0
0.75 -0.5 0
0.25 -0.5 0
0.375 -0.5 0
0.25 -0.375 0
0.375 -0.375 0
0.375 -0.5 0
0.5 -0.5 0
0.375 -0.375 0
0.5 -0.375 0
0.25 -0.375 0
0.375 -0.375 0
0.25 -0.25 0
0.375 -0.25 0
0.375 -0.375 0
0.5 -0.375 0
0.375 -0.25 0
0.5 -0.25 0
0.5 -0.5 0
0.625 -0.5 0
0.5 -0.375 0
0.625 -0.375 0
0.625 -0.5 0
0.75 -0.5 0
0.625 -0.375 0
0.75 -0.375 0
0.5 -0.375 0
0.625 -0.375 0
0.5 -0.25 0
0.625 -0.25 0
0.625 -0.375 0
0.75 -0.375 0
0.625 -0.25 0
0.75 -0.25 0
-0.75 0.5 0
-0.625 0.5 0
-0.75 0.625 0
-0.625 0.625 0
-0.625 0.5 0
-0.5 0.5 0
-0.625 0.625 0
-0.5 0.625 0
-0.75 0.625 0
-0.625 0.625 0
-0.75 0.75 0
-0.625 0.75 0
-0.625 0.625 0
-0.5 0.625 0
-0.625 0.75 0
-0.5 0.75 0
-0.5 0.5 0
-0.375 0.5 0
-0.5 0.625 0
-0.375 0.625 0
-0.375 0.5 0
-0.25 0.5 0
-0.375 0.625 0
-0.25 0.625 0
-0.5 0.625 0
-0.375 0.625 0
-0.5 0.75 0
-0.375 0.75 0
-0.375 0.625 0
-0.25 0.625 0
-0.375 0.75 0
-0.25 0.75 0

CELLS 97 485
4	0	1	3	2
4	4	5	7	6
4	8	9	11	10
4	12	13	15	14
4	16	17	19	18
4	20	21	23	22
4	24	25	27	26
4	28	29	31	30
4	32	33	35	34
4	36	37	39	38
4	40	41	43	42
4	44	45	47	46
4	48	49	51	50
4	52	53	55	54
4	56	57	59	58
4	60	61	63	62
4	64	65	67	66
4	68	69	71	70
4	72	73	75	74
4	76	77	79	78
4	80	81	83	82
4	84	85	87	86
4	88	89	91	90
4	92	93	95	94
4	96	97	99	98
4	100	101	103	102
4	104	105	107	106
4	108	109	111	110
4	112	113	115	114
4	116	117	119	118
4	120	121	123	122
4	124	125	127	126
4	128	129	131	130
4	132	133	135	134
4	136	137	139	138
4	140	141	143	142
4	144	145	147	146
4	148	149	151	150
4	152	153	155	154
4	156	157	159	158
4	160	161	163	162
4	164	165	167	166
4	168	169	171	170
4	172	173	175	174
4	176	177	179	178
4	180	181	183	182
4	184	185	187	186
4	188	189	191	190
4	192	193	195	194
4	196	197	199	198
4	200	201	203	202
4	204	205	207	206
4	208	209	211	210
4	212	213	215	214
4	216	217	219	218
4	220	221	223	222
4	224	225	227	226
4	228	229	231	230
4	232	233	235	234
4	236	237	239	238
4	240	241	243	242
4	244	245	247	246
4	248	249	251	250
4	252	253	255	254
4	256	257	259	258
4	260	261	263	262
4	264	265	267	266
4	268	269	271	270
4	272	273	275	274
4	276	277	279	278
4	280	281	283	282
4	284	285	287	286
4	288	289	291	290
4	292	293	295	294
4	296	297	299	298
4	300	301	303	302
4	304	305	307	306
4	308	309	311	310
4	312	313	315	314
4	316	317	319	318
4	320	321	323	322
4	324	325	327	326
4	328	329	331	330
4	332	333	335	334
4	336	337	339	338
4	340	341	343	342
4	344	345	347	346
4	348	349	351	350
4	352	353	355	354
4	356	357	359	358
4	360	361	363	362
4	364	365	367	366
4	368	369	371	370
4	372	373	375	374
4	376	377	379	378
4	380	381	383	382
4	384	385	387	386

CELL_TYPES 97
 9 9 9 9 9 9 9 9 9 9 9 9 9 9 9 9 9 9 9 9 9 9 9 9 9 9 9 9 9 9 9 9 9 9 9 9 9 9 9 9 9 9 9 9 9 9 9 9 9 9 9 9 9 9 9 9 9 9 9 9 9 9 9 9 9 9 9 9 9 9 9 9 9 9 9 9 9 9 9 9 9 9 9 9 9 9 9 9 9 9 9 9 9 9 9 9 9
POINT_DATA 388
VECTORS gradient double
-0.0509887 -0.0359943 0
-0.11336 -0.101676 0
-0.124231 -0.0946596 0
-0.109986 -0.0943785 0
-0.173242 -0.0873912 0
-0.178699 0.0354875 0
-0.0915936 -0.0945793 0
-0.0918808 -0.0016201 0
-0.122827 -0.175322 0
-0.108677 -0.0895185 0
0.0234626 -0.216681 0
0.000186384 -0.0892811 0
-0.0932772 -0.0917663 0
-0.0953358 -0.00220769 0
0.000151468 -0.0921414 0
0.00165819 -0.00111206 0
0.039303 -0.456457 0
-0.637854 0.83708 0
-0.0104788 -0.235762 0
-0.229748 -0.440743 0
-1.45867 1.33167 0
-0.788976 8.37726 0
-0.330457 -0.565605 0
-0.37579 -0.758745 0
0.584176 8.43242 0
1.27563 1.40108 0
-0.14883 -1.13341 0
0.363016 -0.691753 0
0.462087 0.841639 0
-0.402325 -0.51491 0
0.236406 -0.246205 0
-0.154357 -0.0717653 0
0.000255008 -0.234751 0
-0.216461 0.130588 0
0.30155 -0.386936 0
-0.509398 -0.583023 0
-0.383963 0.295921 0
0.945117 0.496556 0
-1.4425 -1.60173 0
-2.10259 -8.70506 0
0.476493 -0.500102 0
-1.42749 -1.58502 0
0.741729 -0.341035 0
-8.53544 -0.92566 0
-0.558976 0.186854 0
-0.0175599 -0.122337 0
0.78124 -0.709829 0
-0.366056 -0.515748 0
1.33389 -1.50963 0
-0.885433 -0.547886 0
8.34387 -0.856084 0
-0.758758 -0.16815 0
-0.208899 0.235034 0
-0.293397 0.449162 0
0.0282135 0.000849701 0
-0.573214 -0.328627 0
-0.38001 0.641469 0
-0.136362 0.789331 0
-1.55187 -1.25891 0
-0.806058 -8.45588 0
0.130961 -0.206936 0
-1.53304 -1.3048 0
0.140344 0.808506 0
-8.62058 -2.05086 0
0.0803204 0.784355 0
0.245368 0.48775 0
0.634838 -8.4674 0
1.32693 -1.37927 0
0.130541 0.313586 0
-0.0705939 0.0218798 0
0.330381 -0.456958 0
-0.335174 -0.139928 0
1.34505 -1.38996 0
-0.508513 -0.32449 0
8.44651 -2.04209 0
-0.733062 0.994148 0
-0.072735 0.0236566 0
-0.309019 0.260872 0
0.230855 -0.151256 0
-0.516228 -0.450874 0
-0.438536 0.419889 0
-0.233503 0.610812 0
-1.56163 -1.37177 0
-1.00027 -8.58305 0
0.366181 -0.282515 0
-1.4974 -1.4766 0
0.528582 -0.323642 0
-8.64262 -0.756015 0
-0.00498698 0.603501 0
0.0675875 0.334221 0
0.43971 -8.5668 0
1.15003 -1.40113 0
-0.0856522 0.192635 0
-0.115862 -0.0189486 0
0.105442 -0.494693 0
-0.444622 -0.456508 0
1.05205 -1.49715 0
-0.938603 -0.52386 0
8.22235 -0.759183 0
-1.04763 -0.0949837 0
0.89794 -0.0905331 0
-8.69711 0.652731 0
0.464403 0.418093 0
-1.55827 1.33772 0
0.0200565 0.253949 0
-0.555111 0.300973 0
-0.169241 -0.0316766 0
-0.5127 -0.366219 0
-1.57323 1.27839 0
-0.927901 8.42 0
-0.56143 -0.863206 0
-0.171047 -0.723275 0
8.23669 0.700358 0
-1.04993 0.105577 0
1.18019 1.39753 0
-0.906524 0.517901 0
0.468727 8.40238 0
1.2218 1.33068 0
-0.0452604 -0.736956 0
0.280039 -0.74517 0
0.232516 0.369887 0
-0.410183 0.440011 0
0.212619 -0.257506 0
0.00522964 0.0914552 0
0.7452 -0.129544 0
-8.51959 0.511755 0
0.519533 0.080301 0
-1.32535 1.12409 0
0.330362 -0.024519 0
-0.43452 0.0884016 0
-0.0229146 -0.0893864 0
-0.426835 -0.603034 0
-1.46073 1.05714 0
-0.692067 8.16233 0
-0.522097 -1.09357 0
-0.180724 -1.16069 0
8.35314 0.505727 0
-0.743929 -0.0350881 0
1.30627 1.1828 0
-0.834852 0.266047 0
0.756854 8.17994 0
1.36394 1.10167 0
0.0369329 -1.16803 0
0.532286 -0.994997 0
0.312616 0.146002 0
-0.370499 0.189701 0
0.460817 -0.505969 0
0.144467 -0.0267405 0
-0.540205 -0.901186 0
-1.5918 2.29681 0
-0.220854 0.0171095 0
-0.923433 0.314636 0
-1.09582 0.56349 0
-11.1701 -2.00201 0
-0.792653 0.789172 0
-6.07181 2.90705 0
-0.154225 -0.0209624 0
-1.37515 0.350875 0
-0.143755 0.252502 0
-0.120551 -0.413095 0
-1.39657 0.731921 0
-6.6629 2.76203 0
0.0188281 0.464644 0
-1.17055 2.08393 0
-14.1809 1.00983 0
-19.6943 2.04576 0
-7.84704 2.50988 0
-11.5827 12.5165 0
-19.8293 1.85029 0
-3.00006 2.80995 0
-11.7349 11.609 0
-1.87168 19.6353 0
-8.50521 2.47342 0
-12.7922 12.3994 0
-1.59375 1.52678 0
-3.21324 9.56689 0
-12.9048 11.4907 0
-2.03636 19.5446 0
-3.34716 6.77138 0
-0.541421 13.3474 0
2.72222 2.80027 0
19.5696 1.8007 0
1.68535 19.6211 0
11.5236 11.6456 0
19.4829 1.9954 0
13.9057 0.979336 0
11.3773 12.5619 0
7.62858 2.50128 0
1.75733 19.5296 0
12.648 11.5295 0
0.371542 13.329 0
3.13812 6.79238 0
12.5592 12.4431 0
8.30556 2.46612 0
2.99503 9.55188 0
1.35097 1.52012 0
10.8899 -1.97946 0
1.03672 0.64695 0
5.86182 2.93245 0
0.587207 0.814443 0
1.51007 2.35006 0
0.47084 -0.702404 0
0.74794 0.322037 0
-0.0933858 0.0427827 0
6.47506 2.78855 0
1.2618 0.762307 0
0.941362 2.03916 0
-0.164864 0.430079 0
1.24701 0.380486 0
-0.069745 0.0566764 0
-0.0289935 -0.398805 0
0.166843 0.129802 0
-1.42371 -1.50205 0
-3.14356 -9.60961 0
-9.47649 -3.16594 0
-12.7288 -12.7866 0
-3.31389 -7.00221 0
-0.0346986 -13.0971 0
-12.8739 -11.745 0
-1.84899 -19.8562 0
-7.13545 -3.32911 0
-11.5749 -12.9103 0
-13.302 -0.705113 0
-19.6463 -2.12571 0
-11.6579 -11.8286 0
-1.77913 -19.886 0
-19.7176 -2.02711 0
-2.96751 -3.04142 0
-0.759295 -0.710131 0
-0.0164094 -0.1443 0
2.29906 -1.75548 0
0.263209 -0.99403 0
-0.00291256 -0.164035 0
0.08578 -0.397282 0
0.321804 -1.49484 0
-0.457424 -0.220652 0
0.59404 -1.28117 0
0.75709 -0.833738 0
-2.04383 -11.1496 0
2.87346 -6.12131 0
0.705115 -1.50967 0
0.370404 -0.0833742 0
2.72937 -6.73571 0
1.98714 -1.20176 0
0.92002 -14.1685 0
2.44278 -7.89005 0
1.93746 -19.7652 0
12.5063 -11.6531 0
2.40796 -8.56827 0
1.45999 -1.61375 0
12.388 -12.8359 0
9.49334 -3.26119 0
1.74247 -19.8538 0
11.5914 -11.8005 0
2.74576 -3.03942 0
19.5826 -1.98331 0
11.4758 -12.926 0
6.73458 -3.40397 0
19.4919 -2.05201 0
13.2919 -0.641257 0
-1.4034 -1.40914 0
-3.1049 -9.40204 0
-9.547 -3.01082 0
-12.6948 -12.6244 0
-3.25774 -7.07344 0
-0.582482 -13.2852 0
-12.8551 -11.4571 0
-2.05873 -19.5931 0
-7.00996 -3.18242 0
-11.6717 -12.7603 0
-13.0185 -0.0139284 0
-19.7937 -1.85006 0
-11.7685 -11.5296 0
-1.88375 -19.6623 0
-19.8647 -1.76978 0
-3.00542 -2.91698 0
0.403969 -13.2251 0
3.05557 -7.08409 0
1.81816 -19.5806 0
12.6291 -11.5154 0
2.89048 -9.42834 0
1.24019 -1.36551 0
12.5065 -12.6686 0
9.34786 -3.08389 0
1.72494 -19.6506 0
11.5469 -11.598 0
2.72513 -2.90886 0
19.601 -1.71943 0
11.4652 -12.8139 0
6.74283 -3.25442 0
19.5732 -1.79007 0
12.8334 0.0245447 0
-1.54587 -1.41371 0
-3.21434 -9.51977 0
-9.74485 -3.13615 0
-12.7908 -12.6975 0
-3.38045 -7.09688 0
-0.738598 -13.4018 0
-12.9463 -11.5854 0
-2.11426 -19.6685 0
-7.08501 -3.28093 0
-11.7237 -12.8635 0
-13.549 -0.511139 0
-19.7678 -1.99088 0
-11.8485 -11.7032 0
-2.08183 -19.7709 0
-19.8596 -1.82345 0
-3.02766 -2.94856 0
0.260697 -13.3862 0
2.92253 -7.12828 0
1.7778 -19.6532 0
12.5388 -11.6197 0
2.77392 -9.57677 0
1.15836 -1.41245 0
12.4076 -12.703 0
9.19121 -3.09114 0
1.55181 -19.7572 0
11.3653 -11.7236 0
2.70747 -2.95753 0
19.4665 -1.82977 0
11.2813 -12.8573 0
6.85971 -3.24648 0
19.3921 -2.00251 0
13.0399 -0.526051 0
-13.5235 0.428383 0
-19.7542 1.8103 0
-7.09831 3.15531 0
-11.7611 12.7161 0
-19.8469 1.73558 0
-3.01688 2.77316 0
-11.8859 11.5786 0
-2.02359 19.6067 0
-9.72208 2.99592 0
-12.8365 12.5777 0
-1.50787 1.27283 0
-3.24972 9.42475 0
-12.9909 11.4672 0
-2.05698 19.5468 0
-3.40933 6.88496 0
-0.665664 13.2671 0
2.70025 2.77697 0
19.455 1.78475 0
1.51066 19.591 0
11.4466 11.6118 0
19.3798 1.87546 0
12.9839 0.471493 0
11.3523 12.7398 0
6.87333 3.16429 0
1.72278 19.5311 0
12.6091 11.5225 0
0.256178 13.267 0
3.02409 6.9537 0
12.4678 12.6227 0
9.22065 2.99693 0
2.87733 9.47303 0
1.12542 1.37429 0
-13.3496 0.273593 0
-19.6673 1.74485 0
-7.12337 2.93817 0
-11.5533 12.5511 0
-19.7395 1.57895 0
-2.97152 2.68738 0
-11.6358 11.4226 0
-1.81289 19.4496 0
-9.45307 2.78719 0
-12.684 12.3938 0
-1.45503 1.06649 0
-3.06228 9.22209 0
-12.8141 11.315 0
-2.04041 19.3413 0
-3.21245 6.76599 0
-0.51475 12.9983 0
2.76128 2.67882 0
19.591 1.57125 0
1.82316 19.4644 0
11.5985 11.4211 0
19.4998 1.74177 0
13.2952 0.279779 0
11.4749 12.5782 0
6.83322 3.0242 0
1.85552 19.3573 0
12.7009 11.2998 0
0.496141 13.0124 0
3.17595 6.76892 0
12.5455 12.4093 0
9.4941 2.88166 0
3.00789 9.19776 0
1.35389 1.12925 0
SCALARS solution double 1
LOOKUP_TABLE default
-0.127727 -0.0945258 -0.105825 -0.0432801 -0.0931636 0.00472591 -0.0448819 -0.00101124 -0.106024 -0.0449792 0.00457889 0.000298499 -0.0465698 -0.000755022 0.000561588 1.63855e-05 -0.278776 -0.285027 -0.205475 -0.177067 -0.333168 0.181257 -0.187587 -0.0693986 0.183151 -0.285675 -0.0502244 -0.122037 -0.234123 -0.173174 -0.124726 -0.122173 -0.201965 -0.182683 -0.133585 -0.24889 -0.200611 -0.162748 -0.252692 0.345621 -0.135695 -0.269529 -0.00403273 0.265552 -0.180004 -0.127647 -0.179939 -0.0494617 -0.230771 -0.0391373 0.296509 0.0635083 -0.225814 -0.171781 -0.265607 -0.324913 -0.172861 -0.0837283 -0.341496 0.169978 -0.279235 -0.323231 -0.2648 0.232251 -0.0838413 -0.152187 0.171207 -0.295443 -0.149497 -0.149994 -0.275048 -0.150379 -0.278301 -0.166581 0.305617 -0.141057 -0.149652 -0.111077 -0.148994 -0.24356 -0.112562 0.00194483 -0.262842 0.280715 -0.154075 -0.254389 -0.0472768 0.26226 -0.000487763 -0.0394682 0.282898 -0.137298 -0.0357928 0.00891843 -0.125952 0.0627166 -0.142556 0.076489 0.359998 0.168035 -0.028123 0.264755 -0.115498 -0.228097 -0.124461 -0.211373 -0.120983 -0.0489596 -0.229003 0.323547 -0.0327093 0.0701461 0.360974 0.167871 -0.125426 0.0753839 0.324686 -0.124327 0.0697479 0.0271892 -0.107831 0.0609255 0.011905 0.00625846 -0.00342305 0.265262 -0.0228915 -0.161844 -0.022352 -0.143674 0.00498469 0.0526164 -0.154756 0.334747 0.0632852 0.169441 0.298951 0.0630964 -0.147585 0.0186343 0.33274 -0.155481 0.171693 0.0841498 -0.139255 0.00489227 0.0691755 0.00603301 -0.300603 -0.115842 -0.286552 -0.239657 -0.0550173 0.350469 -0.175811 0.0548027 -0.270868 -0.231638 -0.288937 -0.257809 -0.15395 0.166467 -0.246474 -0.237032 0.373232 2.90106 0.032083 1.52245 2.58076 4.70304 1.29597 2.60664 0.115711 1.75201 -0.231363 0.111316 1.51519 2.93318 0.077321 0.438297 4.69883 2.61894 2.60414 1.32281 2.93889 0.431682 1.54646 0.0839976 2.93045 1.55187 0.437913 0.100572 1.78676 0.175678 0.133709 -0.178092 0.419124 0.030159 0.10714 -0.0994041 -0.0347387 -0.201575 -0.155915 -0.187963 0.229753 -0.0749104 -0.182727 -0.170607 -0.148054 -0.173059 -0.182446 -0.200909 -0.141594 0.184201 0.187671 1.84004 0.147268 0.494227 1.61629 3.01688 0.156419 1.62812 0.522877 3.0265 1.40289 2.68916 2.70136 4.80623 -0.222956 -0.201967 -0.0255956 -0.139616 -0.187216 -0.208034 -0.131855 -0.158842 0.0393729 -0.0830779 0.459284 0.154876 -0.0586814 -0.147059 0.277475 -0.127855 0.472163 0.131852 3.01327 1.62785 0.223571 -0.122952 1.86828 0.222021 2.69356 1.40432 4.81045 2.72124 1.6335 0.188897 3.04769 0.55956 -0.216463 0.104911 0.101349 1.74051 0.07418 0.427234 1.52855 2.92603 0.0632894 1.52452 0.396995 2.90514 1.31078 2.60094 2.57597 4.6987 0.428141 0.0965731 2.92304 1.561 0.127942 -0.167239 1.77303 0.151129 2.59818 1.33601 4.69452 2.61449 1.5495 0.114189 2.94245 0.453766 -0.132014 0.205356 0.198731 1.85727 0.171365 0.546728 1.64302 3.05187 0.160647 1.62924 0.521028 3.04308 1.41062 2.72557 2.71617 4.84091 0.54568 0.231318 3.04864 1.69127 0.265419 -0.0222523 1.90635 0.297659 2.72231 1.47818 4.8372 2.76294 1.69561 0.267182 3.08865 0.617131 0.521 3.04037 0.172806 1.65314 2.71382 4.83681 1.42548 2.75112 0.209867 1.87953 -0.0995482 0.238026 1.65594 3.07653 0.203695 0.580267 4.83311 2.76024 2.74837 1.48928 3.08571 0.617906 1.71404 0.274378 3.0739 1.70233 0.578905 0.255233 1.92507 0.305433 0.288278 -0.00349168 0.522225 3.02938 0.209321 1.67195 2.70427 4.81128 1.45425 2.73179 0.239726 1.88279 -0.0411307 0.28284 1.66745 3.05881 0.248557 0.59812 4.8152 2.72406 2.73509 1.45165 3.05096 0.561707 1.67057 0.232696 3.0621 1.68428 0.599239 0.250509 1.89876 0.270866 0.284672 -0.0273278 
SCALARS u_post double 1
LOOKUP_TABLE default
-0.129394 -0.0903177 -0.0996698 -0.0436852 -0.0876992 0.00428548 -0.0453469 -0.00140016 -0.0987145 -0.0449047 0.00320767 -0.00152709 -0.0465738 -8.62817e-05 -0.000105994 5.1931e-06 -0.283336 -0.159681 -0.227577 -0.194353 -0.0242852 0.548313 -0.273601 -0.225618 0.547274 0.0305568 -0.207483 -0.209493 -0.10353 -0.175217 -0.148545 -0.147743 -0.231682 -0.189881 -0.148683 -0.117982 -0.258184 -0.288912 0.0269653 0.684296 -0.232654 0.0391967 -0.161167 0.6427 -0.179826 -0.151084 -0.0505474 -0.0765943 0.085031 -0.137741 0.671715 -0.100202 -0.257669 -0.187714 -0.275909 -0.196077 -0.270412 -0.241087 -0.0392141 0.545778 -0.352323 -0.0489527 -0.401837 0.591245 -0.242649 -0.250459 0.547474 0.0129376 -0.167067 -0.182314 -0.143897 -0.15668 0.00074009 -0.224767 0.643659 -0.268012 -0.184239 -0.132162 -0.154459 -0.104505 -0.218616 -0.166428 0.0545111 0.663587 -0.240431 0.0551344 -0.205179 0.628466 -0.160244 -0.129359 0.656307 0.160722 -0.0434435 -0.0237071 0.00445562 0.0436335 0.156751 -0.0215566 0.734663 0.0126831 -0.187115 0.627144 -0.20195 0.0892973 -0.134587 -0.0654756 -0.161999 -0.0657373 0.0878032 0.694279 -0.131946 -0.0911073 0.735878 0.0124374 0.178685 -0.020537 0.688895 0.179194 -0.0861016 -0.0623237 0.0266826 0.0447865 0.00434091 -0.0284676 -0.159424 0.640278 -0.116977 0.141871 -0.0346488 -0.0124741 -0.0249543 0.0438652 0.140965 0.709211 -0.021691 0.0160531 0.669073 -0.0980442 0.159738 -0.07017 0.716638 0.158346 0.00939161 -0.0203497 0.00404993 -0.000658526 0.0470608 -0.0317785 -0.291288 -0.0936751 -0.278247 -0.220736 -0.164365 0.470208 -0.199138 0.280627 -0.285592 -0.205357 -0.286506 -0.236625 -0.195276 0.261095 -0.25454 -0.128079 0.490197 2.47636 0.307954 1.49761 2.369 3.73079 1.59196 2.38473 0.219411 1.58993 -0.0768136 0.216937 1.48965 2.49219 0.362362 0.562332 3.72882 2.39782 2.38664 1.61996 2.50396 0.547336 1.5266 0.365583 2.49044 1.52051 0.564187 0.38902 1.6196 0.275391 0.245549 -0.0196811 0.529536 -0.0811622 0.336699 -0.118713 -0.00666115 -0.185875 -0.144051 -0.1777 0.318425 -0.116796 -0.070912 -0.175018 -0.126639 -0.188177 -0.158066 -0.193521 -0.009431 0.287749 0.29703 1.69941 0.438597 0.62114 1.58731 2.56924 0.439006 1.58813 0.657117 2.59498 1.68681 2.46824 2.49039 3.84431 -0.206984 -0.191618 0.0026541 -0.127769 -0.201928 -0.200514 -0.110393 -0.134681 -0.0719257 -0.102429 0.570021 0.384699 -0.100553 -0.151567 0.366457 -0.0158449 0.58793 0.413551 2.57855 1.60819 0.323334 0.0356518 1.70118 0.334043 2.47237 1.70153 3.84074 2.50416 1.60211 0.477492 2.60779 0.686098 -0.0854559 0.212365 0.201363 1.60356 0.353724 0.559283 1.49255 2.49252 0.349899 1.49274 0.525571 2.46668 1.5931 2.38475 2.36473 3.73445 0.561778 0.379142 2.49102 1.52107 0.237038 -0.0355284 1.63238 0.254464 2.38663 1.61965 3.73243 2.39369 1.52022 0.40532 2.49462 0.580568 0.00227981 0.314114 0.296915 1.71634 0.456488 0.675513 1.60689 2.61746 0.446261 1.60531 0.643143 2.60126 1.70668 2.51338 2.49445 3.86833 0.673834 0.508815 2.61915 1.65961 0.364857 0.108237 1.76953 0.405321 2.51062 1.76175 3.87149 2.54706 1.65968 0.546412 2.65523 0.748896 0.645062 2.59961 0.461774 1.6238 2.4963 3.86635 1.72291 2.52983 0.313467 1.73474 0.0358061 0.346618 1.6235 2.63324 0.493066 0.707974 3.86946 2.54895 2.52711 1.7744 2.65375 0.751307 1.67431 0.556783 2.6346 1.67304 0.706287 0.537653 1.78445 0.415055 0.39109 0.128268 0.654784 2.59679 0.488537 1.63603 2.48853 3.84593 1.7382 2.52067 0.347553 1.74594 0.0903779 0.383079 1.63611 2.62902 0.527233 0.72683 3.8427 2.50245 2.52343 1.74823 2.60951 0.684294 1.64671 0.518461 2.62735 1.64844 0.728508 0.536642 1.75788 0.369016 0.394033 0.107479 
