# vtk DataFile Version 3.0
#This file was generated by the deal.II library on 2020/8/22 at 21:54:08
ASCII
DATASET UNSTRUCTURED_GRID

POINTS 9216 double
-1 -1 0
-0.972222 -1 0
-0.944444 -1 0
-0.916667 -1 0
-1 -0.972222 0
-0.972222 -0.972222 0
-0.944444 -0.972222 0
-0.916667 -0.972222 0
-1 -0.944444 0
-0.972222 -0.944444 0
-0.944444 -0.944444 0
-0.916667 -0.944444 0
-1 -0.916667 0
-0.972222 -0.916667 0
-0.944444 -0.916667 0
-0.916667 -0.916667 0
-0.916667 -1 0
-0.888889 -1 0
-0.861111 -1 0
-0.833333 -1 0
-0.916667 -0.972222 0
-0.888889 -0.972222 0
-0.861111 -0.972222 0
-0.833333 -0.972222 0
-0.916667 -0.944444 0
-0.888889 -0.944444 0
-0.861111 -0.944444 0
-0.833333 -0.944444 0
-0.916667 -0.916667 0
-0.888889 -0.916667 0
-0.861111 -0.916667 0
-0.833333 -0.916667 0
-1 -0.916667 0
-0.972222 -0.916667 0
-0.944444 -0.916667 0
-0.916667 -0.916667 0
-1 -0.888889 0
-0.972222 -0.888889 0
-0.944444 -0.888889 0
-0.916667 -0.888889 0
-1 -0.861111 0
-0.972222 -0.861111 0
-0.944444 -0.861111 0
-0.916667 -0.861111 0
-1 -0.833333 0
-0.972222 -0.833333 0
-0.944444 -0.833333 0
-0.916667 -0.833333 0
-0.916667 -0.916667 0
-0.888889 -0.916667 0
-0.861111 -0.916667 0
-0.833333 -0.916667 0
-0.916667 -0.888889 0
-0.888889 -0.888889 0
-0.861111 -0.888889 0
-0.833333 -0.888889 0
-0.916667 -0.861111 0
-0.888889 -0.861111 0
-0.861111 -0.861111 0
-0.833333 -0.861111 0
-0.916667 -0.833333 0
-0.888889 -0.833333 0
-0.861111 -0.833333 0
-0.833333 -0.833333 0
-0.833333 -1 0
-0.805556 -1 0
-0.777778 -1 0
-0.75 -1 0
-0.833333 -0.972222 0
-0.805556 -0.972222 0
-0.777778 -0.972222 0
-0.75 -0.972222 0
-0.833333 -0.944444 0
-0.805556 -0.944444 0
-0.777778 -0.944444 0
-0.75 -0.944444 0
-0.833333 -0.916667 0
-0.805556 -0.916667 0
-0.777778 -0.916667 0
-0.75 -0.916667 0
-0.75 -1 0
-0.722222 -1 0
-0.694444 -1 0
-0.666667 -1 0
-0.75 -0.972222 0
-0.722222 -0.972222 0
-0.694444 -0.972222 0
-0.666667 -0.972222 0
-0.75 -0.944444 0
-0.722222 -0.944444 0
-0.694444 -0.944444 0
-0.666667 -0.944444 0
-0.75 -0.916667 0
-0.722222 -0.916667 0
-0.694444 -0.916667 0
-0.666667 -0.916667 0
-0.833333 -0.916667 0
-0.805556 -0.916667 0
-0.777778 -0.916667 0
-0.75 -0.916667 0
-0.833333 -0.888889 0
-0.805556 -0.888889 0
-0.777778 -0.888889 0
-0.75 -0.888889 0
-0.833333 -0.861111 0
-0.805556 -0.861111 0
-0.777778 -0.861111 0
-0.75 -0.861111 0
-0.833333 -0.833333 0
-0.805556 -0.833333 0
-0.777778 -0.833333 0
-0.75 -0.833333 0
-0.75 -0.916667 0
-0.722222 -0.916667 0
-0.694444 -0.916667 0
-0.666667 -0.916667 0
-0.75 -0.888889 0
-0.722222 -0.888889 0
-0.694444 -0.888889 0
-0.666667 -0.888889 0
-0.75 -0.861111 0
-0.722222 -0.861111 0
-0.694444 -0.861111 0
-0.666667 -0.861111 0
-0.75 -0.833333 0
-0.722222 -0.833333 0
-0.694444 -0.833333 0
-0.666667 -0.833333 0
-1 -0.833333 0
-0.972222 -0.833333 0
-0.944444 -0.833333 0
-0.916667 -0.833333 0
-1 -0.805556 0
-0.972222 -0.805556 0
-0.944444 -0.805556 0
-0.916667 -0.805556 0
-1 -0.777778 0
-0.972222 -0.777778 0
-0.944444 -0.777778 0
-0.916667 -0.777778 0
-1 -0.75 0
-0.972222 -0.75 0
-0.944444 -0.75 0
-0.916667 -0.75 0
-0.916667 -0.833333 0
-0.888889 -0.833333 0
-0.861111 -0.833333 0
-0.833333 -0.833333 0
-0.916667 -0.805556 0
-0.888889 -0.805556 0
-0.861111 -0.805556 0
-0.833333 -0.805556 0
-0.916667 -0.777778 0
-0.888889 -0.777778 0
-0.861111 -0.777778 0
-0.833333 -0.777778 0
-0.916667 -0.75 0
-0.888889 -0.75 0
-0.861111 -0.75 0
-0.833333 -0.75 0
-1 -0.75 0
-0.972222 -0.75 0
-0.944444 -0.75 0
-0.916667 -0.75 0
-1 -0.722222 0
-0.972222 -0.722222 0
-0.944444 -0.722222 0
-0.916667 -0.722222 0
-1 -0.694444 0
-0.972222 -0.694444 0
-0.944444 -0.694444 0
-0.916667 -0.694444 0
-1 -0.666667 0
-0.972222 -0.666667 0
-0.944444 -0.666667 0
-0.916667 -0.666667 0
-0.916667 -0.75 0
-0.888889 -0.75 0
-0.861111 -0.75 0
-0.833333 -0.75 0
-0.916667 -0.722222 0
-0.888889 -0.722222 0
-0.861111 -0.722222 0
-0.833333 -0.722222 0
-0.916667 -0.694444 0
-0.888889 -0.694444 0
-0.861111 -0.694444 0
-0.833333 -0.694444 0
-0.916667 -0.666667 0
-0.888889 -0.666667 0
-0.861111 -0.666667 0
-0.833333 -0.666667 0
-0.833333 -0.833333 0
-0.805556 -0.833333 0
-0.777778 -0.833333 0
-0.75 -0.833333 0
-0.833333 -0.805556 0
-0.805556 -0.805556 0
-0.777778 -0.805556 0
-0.75 -0.805556 0
-0.833333 -0.777778 0
-0.805556 -0.777778 0
-0.777778 -0.777778 0
-0.75 -0.777778 0
-0.833333 -0.75 0
-0.805556 -0.75 0
-0.777778 -0.75 0
-0.75 -0.75 0
-0.75 -0.833333 0
-0.722222 -0.833333 0
-0.694444 -0.833333 0
-0.666667 -0.833333 0
-0.75 -0.805556 0
-0.722222 -0.805556 0
-0.694444 -0.805556 0
-0.666667 -0.805556 0
-0.75 -0.777778 0
-0.722222 -0.777778 0
-0.694444 -0.777778 0
-0.666667 -0.777778 0
-0.75 -0.75 0
-0.722222 -0.75 0
-0.694444 -0.75 0
-0.666667 -0.75 0
-0.833333 -0.75 0
-0.805556 -0.75 0
-0.777778 -0.75 0
-0.75 -0.75 0
-0.833333 -0.722222 0
-0.805556 -0.722222 0
-0.777778 -0.722222 0
-0.75 -0.722222 0
-0.833333 -0.694444 0
-0.805556 -0.694444 0
-0.777778 -0.694444 0
-0.75 -0.694444 0
-0.833333 -0.666667 0
-0.805556 -0.666667 0
-0.777778 -0.666667 0
-0.75 -0.666667 0
-0.75 -0.75 0
-0.722222 -0.75 0
-0.694444 -0.75 0
-0.666667 -0.75 0
-0.75 -0.722222 0
-0.722222 -0.722222 0
-0.694444 -0.722222 0
-0.666667 -0.722222 0
-0.75 -0.694444 0
-0.722222 -0.694444 0
-0.694444 -0.694444 0
-0.666667 -0.694444 0
-0.75 -0.666667 0
-0.722222 -0.666667 0
-0.694444 -0.666667 0
-0.666667 -0.666667 0
-0.666667 -1 0
-0.638889 -1 0
-0.611111 -1 0
-0.583333 -1 0
-0.666667 -0.972222 0
-0.638889 -0.972222 0
-0.611111 -0.972222 0
-0.583333 -0.972222 0
-0.666667 -0.944444 0
-0.638889 -0.944444 0
-0.611111 -0.944444 0
-0.583333 -0.944444 0
-0.666667 -0.916667 0
-0.638889 -0.916667 0
-0.611111 -0.916667 0
-0.583333 -0.916667 0
-0.583333 -1 0
-0.555556 -1 0
-0.527778 -1 0
-0.5 -1 0
-0.583333 -0.972222 0
-0.555556 -0.972222 0
-0.527778 -0.972222 0
-0.5 -0.972222 0
-0.583333 -0.944444 0
-0.555556 -0.944444 0
-0.527778 -0.944444 0
-0.5 -0.944444 0
-0.583333 -0.916667 0
-0.555556 -0.916667 0
-0.527778 -0.916667 0
-0.5 -0.916667 0
-0.666667 -0.916667 0
-0.638889 -0.916667 0
-0.611111 -0.916667 0
-0.583333 -0.916667 0
-0.666667 -0.888889 0
-0.638889 -0.888889 0
-0.611111 -0.888889 0
-0.583333 -0.888889 0
-0.666667 -0.861111 0
-0.638889 -0.861111 0
-0.611111 -0.861111 0
-0.583333 -0.861111 0
-0.666667 -0.833333 0
-0.638889 -0.833333 0
-0.611111 -0.833333 0
-0.583333 -0.833333 0
-0.583333 -0.916667 0
-0.555556 -0.916667 0
-0.527778 -0.916667 0
-0.5 -0.916667 0
-0.583333 -0.888889 0
-0.555556 -0.888889 0
-0.527778 -0.888889 0
-0.5 -0.888889 0
-0.583333 -0.861111 0
-0.555556 -0.861111 0
-0.527778 -0.861111 0
-0.5 -0.861111 0
-0.583333 -0.833333 0
-0.555556 -0.833333 0
-0.527778 -0.833333 0
-0.5 -0.833333 0
-0.5 -1 0
-0.472222 -1 0
-0.444444 -1 0
-0.416667 -1 0
-0.5 -0.972222 0
-0.472222 -0.972222 0
-0.444444 -0.972222 0
-0.416667 -0.972222 0
-0.5 -0.944444 0
-0.472222 -0.944444 0
-0.444444 -0.944444 0
-0.416667 -0.944444 0
-0.5 -0.916667 0
-0.472222 -0.916667 0
-0.444444 -0.916667 0
-0.416667 -0.916667 0
-0.416667 -1 0
-0.388889 -1 0
-0.361111 -1 0
-0.333333 -1 0
-0.416667 -0.972222 0
-0.388889 -0.972222 0
-0.361111 -0.972222 0
-0.333333 -0.972222 0
-0.416667 -0.944444 0
-0.388889 -0.944444 0
-0.361111 -0.944444 0
-0.333333 -0.944444 0
-0.416667 -0.916667 0
-0.388889 -0.916667 0
-0.361111 -0.916667 0
-0.333333 -0.916667 0
-0.5 -0.916667 0
-0.472222 -0.916667 0
-0.444444 -0.916667 0
-0.416667 -0.916667 0
-0.5 -0.888889 0
-0.472222 -0.888889 0
-0.444444 -0.888889 0
-0.416667 -0.888889 0
-0.5 -0.861111 0
-0.472222 -0.861111 0
-0.444444 -0.861111 0
-0.416667 -0.861111 0
-0.5 -0.833333 0
-0.472222 -0.833333 0
-0.444444 -0.833333 0
-0.416667 -0.833333 0
-0.416667 -0.916667 0
-0.388889 -0.916667 0
-0.361111 -0.916667 0
-0.333333 -0.916667 0
-0.416667 -0.888889 0
-0.388889 -0.888889 0
-0.361111 -0.888889 0
-0.333333 -0.888889 0
-0.416667 -0.861111 0
-0.388889 -0.861111 0
-0.361111 -0.861111 0
-0.333333 -0.861111 0
-0.416667 -0.833333 0
-0.388889 -0.833333 0
-0.361111 -0.833333 0
-0.333333 -0.833333 0
-0.666667 -0.833333 0
-0.638889 -0.833333 0
-0.611111 -0.833333 0
-0.583333 -0.833333 0
-0.666667 -0.805556 0
-0.638889 -0.805556 0
-0.611111 -0.805556 0
-0.583333 -0.805556 0
-0.666667 -0.777778 0
-0.638889 -0.777778 0
-0.611111 -0.777778 0
-0.583333 -0.777778 0
-0.666667 -0.75 0
-0.638889 -0.75 0
-0.611111 -0.75 0
-0.583333 -0.75 0
-0.583333 -0.833333 0
-0.555556 -0.833333 0
-0.527778 -0.833333 0
-0.5 -0.833333 0
-0.583333 -0.805556 0
-0.555556 -0.805556 0
-0.527778 -0.805556 0
-0.5 -0.805556 0
-0.583333 -0.777778 0
-0.555556 -0.777778 0
-0.527778 -0.777778 0
-0.5 -0.777778 0
-0.583333 -0.75 0
-0.555556 -0.75 0
-0.527778 -0.75 0
-0.5 -0.75 0
-0.666667 -0.75 0
-0.638889 -0.75 0
-0.611111 -0.75 0
-0.583333 -0.75 0
-0.666667 -0.722222 0
-0.638889 -0.722222 0
-0.611111 -0.722222 0
-0.583333 -0.722222 0
-0.666667 -0.694444 0
-0.638889 -0.694444 0
-0.611111 -0.694444 0
-0.583333 -0.694444 0
-0.666667 -0.666667 0
-0.638889 -0.666667 0
-0.611111 -0.666667 0
-0.583333 -0.666667 0
-0.583333 -0.75 0
-0.555556 -0.75 0
-0.527778 -0.75 0
-0.5 -0.75 0
-0.583333 -0.722222 0
-0.555556 -0.722222 0
-0.527778 -0.722222 0
-0.5 -0.722222 0
-0.583333 -0.694444 0
-0.555556 -0.694444 0
-0.527778 -0.694444 0
-0.5 -0.694444 0
-0.583333 -0.666667 0
-0.555556 -0.666667 0
-0.527778 -0.666667 0
-0.5 -0.666667 0
-0.5 -0.833333 0
-0.472222 -0.833333 0
-0.444444 -0.833333 0
-0.416667 -0.833333 0
-0.5 -0.805556 0
-0.472222 -0.805556 0
-0.444444 -0.805556 0
-0.416667 -0.805556 0
-0.5 -0.777778 0
-0.472222 -0.777778 0
-0.444444 -0.777778 0
-0.416667 -0.777778 0
-0.5 -0.75 0
-0.472222 -0.75 0
-0.444444 -0.75 0
-0.416667 -0.75 0
-0.416667 -0.833333 0
-0.388889 -0.833333 0
-0.361111 -0.833333 0
-0.333333 -0.833333 0
-0.416667 -0.805556 0
-0.388889 -0.805556 0
-0.361111 -0.805556 0
-0.333333 -0.805556 0
-0.416667 -0.777778 0
-0.388889 -0.777778 0
-0.361111 -0.777778 0
-0.333333 -0.777778 0
-0.416667 -0.75 0
-0.388889 -0.75 0
-0.361111 -0.75 0
-0.333333 -0.75 0
-0.5 -0.75 0
-0.472222 -0.75 0
-0.444444 -0.75 0
-0.416667 -0.75 0
-0.5 -0.722222 0
-0.472222 -0.722222 0
[...]
POINT_DATA 9216
VECTORS gradient double
-0.000363932 -0.00036482 0
-0.000693003 -0.000724472 0
-0.00123669 -0.00137171 0
-0.00210142 -0.00249075 0
-0.000725291 -0.000693149 0
-0.00134629 -0.00134639 0
-0.00239474 -0.00255725 0
-0.00407384 -0.00462397 0
-0.00137153 -0.00123633 0
-0.00255712 -0.00239523 0
-0.00455316 -0.00455314 0
-0.00774762 -0.00822832 0
-0.00249239 -0.00210007 0
-0.00462385 -0.00407411 0
-0.00822743 -0.00774692 0
-0.0140022 -0.0140029 0
-0.00211204 -0.00249007 0
-0.00343462 -0.00436756 0
-0.00536742 -0.00735346 0
-0.00802407 -0.0119109 0
-0.00408873 -0.00461851 0
-0.00666177 -0.00812723 0
-0.0104194 -0.013664 0
-0.0155854 -0.0221509 0
-0.00777227 -0.00821736 0
-0.0126644 -0.0144692 0
-0.019802 -0.0243222 0
-0.0296098 -0.0394361 0
-0.0140442 -0.0139845 0
-0.0228918 -0.0246255 0
-0.0358002 -0.0413985 0
-0.0535385 -0.0671274 0
-0.00249213 -0.00211162 0
-0.00461815 -0.00408979 0
-0.00821579 -0.00777252 0
-0.0139827 -0.0140462 0
-0.00436754 -0.00343304 0
-0.00812715 -0.00666236 0
-0.0144694 -0.0126637 0
-0.024627 -0.022893 0
-0.00735507 -0.00536532 0
-0.0136636 -0.0104201 0
-0.0243211 -0.019801 0
-0.0413984 -0.0358017 0
-0.0119106 -0.00802239 0
-0.0221509 -0.015587 0
-0.0394368 -0.0296096 0
-0.0671308 -0.0535418 0
-0.0140245 -0.0140277 0
-0.0228608 -0.0246976 0
-0.0357536 -0.041515 0
-0.0534714 -0.0673096 0
-0.0246972 -0.0228638 0
-0.0402542 -0.0402525 0
-0.0629429 -0.0676711 0
-0.0941145 -0.10972 0
-0.0415121 -0.0357575 0
-0.0676703 -0.0629405 0
-0.105818 -0.105819 0
-0.158228 -0.171561 0
-0.067309 -0.0534778 0
-0.109724 -0.0941136 0
-0.171566 -0.158233 0
-0.256523 -0.256521 0
-0.00804319 -0.0119156 0
-0.0114457 -0.0185714 0
-0.0155951 -0.0278471 0
-0.0202748 -0.0401947 0
-0.0156095 -0.0220769 0
-0.0222559 -0.0345359 0
-0.0303408 -0.0517063 0
-0.0394431 -0.0747302 0
-0.0296475 -0.0392817 0
-0.0422811 -0.0614887 0
-0.0576292 -0.0920392 0
-0.0748921 -0.133054 0
-0.0536008 -0.0668676 0
-0.0764676 -0.10467 0
-0.104238 -0.156686 0
-0.135465 -0.226515 0
-0.0202527 -0.0402038 0
-0.0249763 -0.055783 0
-0.0291727 -0.0745068 0
-0.0321479 -0.0957759 0
-0.0394098 -0.0746497 0
-0.0486306 -0.103618 0
-0.0568213 -0.138356 0
-0.0626219 -0.177878 0
-0.0748349 -0.132884 0
-0.0923397 -0.184465 0
-0.107882 -0.2463 0
-0.11888 -0.316669 0
-0.135366 -0.226229 0
-0.167051 -0.314052 0
-0.195183 -0.419341 0
-0.215088 -0.539161 0
-0.0535336 -0.0670495 0
-0.0763745 -0.104946 0
-0.104114 -0.157087 0
-0.135309 -0.227079 0
-0.0942164 -0.109314 0
-0.134411 -0.171078 0
-0.183205 -0.256107 0
-0.238056 -0.37021 0
-0.15839 -0.170957 0
-0.225996 -0.267498 0
-0.308049 -0.400476 0
-0.400272 -0.578858 0
-0.256773 -0.255657 0
-0.366384 -0.399955 0
-0.499386 -0.598808 0
-0.648847 -0.865466 0
-0.13521 -0.226794 0
-0.166861 -0.314819 0
-0.194965 -0.420345 0
-0.214851 -0.54043 0
-0.237888 -0.369767 0
-0.293555 -0.513291 0
-0.342972 -0.685374 0
-0.377926 -0.881188 0
-0.399998 -0.578199 0
-0.493621 -0.802604 0
-0.576731 -1.07169 0
-0.635514 -1.37785 0
-0.648414 -0.864527 0
-0.800167 -1.20002 0
-0.934872 -1.60235 0
-1.03013 -2.06008 0
-0.0119238 -0.00804313 0
-0.0220764 -0.0156124 0
-0.039277 -0.0296488 0
-0.0668617 -0.0536063 0
-0.0185701 -0.0114426 0
-0.0345356 -0.0222566 0
-0.0614898 -0.0422795 0
-0.104675 -0.0764695 0
-0.027852 -0.0155913 0
-0.0517058 -0.030341 0
-0.0920366 -0.057627 0
-0.156685 -0.104239 0
-0.0401905 -0.0202745 0
-0.0747299 -0.0394459 0
-0.133057 -0.0748931 0
-0.226524 -0.135471 0
-0.0670397 -0.0535421 0
-0.109305 -0.0942186 0
-0.170945 -0.158399 0
-0.255638 -0.256776 0
-0.104945 -0.0763803 0
-0.171083 -0.134408 0
-0.267505 -0.225997 0
-0.399959 -0.366375 0
-0.157079 -0.10412 0
-0.256104 -0.1832 0
-0.400473 -0.308049 0
-0.598797 -0.499375 0
-0.227081 -0.13532 0
-0.370222 -0.238057 0
-0.578873 -0.400282 0
-0.865476 -0.648848 0
-0.0402089 -0.0202508 0
-0.0746497 -0.0394112 0
-0.132883 -0.0748342 0
-0.226231 -0.135369 0
-0.0557847 -0.0249743 0
-0.103617 -0.0486313 0
-0.184464 -0.0923389 0
-0.314056 -0.167053 0
-0.0745109 -0.0291714 0
-0.138356 -0.0568212 0
-0.246299 -0.107881 0
-0.419344 -0.195183 0
-0.0957766 -0.0321491 0
-0.177877 -0.0626217 0
-0.316668 -0.11888 0
-0.539165 -0.215088 0
-0.226787 -0.135218 0
-0.369768 -0.237885 0
-0.578201 -0.400002 0
-0.864522 -0.648406 0
-0.314812 -0.166869 0
-0.513294 -0.293551 0
-0.802607 -0.493624 0
-1.20001 -0.80016 0
-0.420337 -0.194972 0
-0.685376 -0.342968 0
-1.07169 -0.576734 0
-1.60234 -0.934865 0
-0.540422 -0.214856 0
-0.881191 -0.377925 0
-1.37786 -0.635517 0
-2.06007 -1.03013 0
-0.255887 -0.255912 0
-0.365174 -0.400336 0
-0.4978 -0.599354 0
-0.646855 -0.866225 0
-0.400331 -0.365191 0
-0.571257 -0.571246 0
-0.778622 -0.855326 0
-1.01162 -1.23617 0
-0.599333 -0.497817 0
-0.855321 -0.778608 0
-1.16586 -1.16586 0
-1.51475 -1.68489 0
-0.866224 -0.646884 0
-1.23619 -1.01162 0
-1.68492 -1.51477 0
-2.18901 -2.189 0
-0.646423 -0.865287 0
-0.79778 -1.20104 0
-0.932148 -1.60367 0
-1.02718 -2.06173 0
-1.01096 -1.23489 0
-1.24756 -1.7141 0
-1.45758 -2.28882 0
-1.60608 -2.94266 0
-1.51378 -1.68321 0
-1.86815 -2.33636 0
-2.1827 -3.11974 0
-2.4051 -4.0109 0
-2.18762 -2.18689 0
-2.69966 -3.03538 0
-3.15413 -4.05309 0
-3.47542 -5.21076 0
-0.865269 -0.646444 0
-1.23489 -1.01095 0
-1.68322 -1.51379 0
-2.18688 -2.1876 0
-1.20102 -0.797798 0
-1.7141 -1.24756 0
-2.33637 -1.86816 0
-3.03536 -2.69964 0
-1.60365 -0.93216 0
-2.28883 -1.45757 0
-3.11975 -2.1827 0
-4.05307 -3.15412 0
-2.06171 -1.02719 0
-2.94266 -1.60608 0
-4.01091 -2.40511 0
-5.21073 -3.47542 0
-2.18549 -2.18549 0
-2.69711 -3.03347 0
-3.15123 -4.05057 0
-3.47229 -5.20756 0
-3.03347 -2.69711 0
-3.74357 -3.74358 0
-4.37385 -4.99882 0
-4.81941 -6.42665 0
-4.05058 -3.15122 0
-4.99882 -4.37385 0
-5.84046 -5.84046 0
-6.43541 -7.50867 0
-5.20756 -3.47228 0
-6.42664 -4.81942 0
-7.50866 -6.4354 0
-8.27347 -8.27348 0
-0.032079 -0.0957689 0
-0.0331137 -0.118388 0
-0.0315073 -0.140845 0
-0.0269919 -0.16121 0
-0.0625281 -0.177976 0
-0.0645123 -0.21977 0
-0.0613897 -0.26157 0
-0.0526311 -0.299173 0
-0.118727 -0.316874 0
-0.122459 -0.391221 0
-0.116528 -0.465667 0
-0.0999293 -0.532553 0
-0.21483 -0.539506 0
-0.221568 -0.666111 0
-0.210842 -0.792877 0
-0.180831 -0.906784 0
-0.0270044 -0.161186 0
-0.0198596 -0.177535 0
-0.0105393 -0.188118 0
3.68283e-05 -0.191741 0
-0.0526508 -0.29939 0
-0.0386855 -0.329565 0
-0.0205092 -0.349308 0
7.58209e-05 -0.35587 0
-0.0999636 -0.533009 0
-0.0734329 -0.58668 0
-0.038935 -0.621854 0
0.000109635 -0.633485 0
-0.180891 -0.90755 0
-0.13286 -0.998954 0
-0.0704292 -1.05885 0
0.000210687 -1.07867 0
-0.214593 -0.540776 0
-0.221327 -0.667657 0
-0.210613 -0.794694 0
-0.180634 -0.908843 0
-0.377496 -0.881727 0
-0.389298 -1.08868 0
-0.370446 -1.29582 0
-0.317741 -1.48202 0
-0.634821 -1.37866 0
-0.654641 -1.70233 0
-0.622945 -2.02617 0
-0.53435 -2.31739 0
-1.02905 -2.06122 0
-1.06112 -2.54524 0
-1.00973 -3.02936 0
-0.86617 -3.46486 0
-0.180694 -0.90961 0
-0.132715 -1.0012 0
-0.0703495 -1.06122 0
0.000215893 -1.08107 0
-0.317843 -1.48322 0
-0.233439 -1.63263 0
-0.123759 -1.73049 0
0.0003187 -1.76291 0
-0.534517 -2.31917 0
-0.392548 -2.55286 0
-0.208097 -2.70583 0
0.000535691 -2.75659 0
-0.866437 -3.46738 0
-0.636286 -3.81685 0
-0.337317 -4.04551 0
0.000806769 -4.12148 0
-6.48514e-05 -0.191742 0
0.0105128 -0.188116 0
0.0198361 -0.177532 0
0.0269873 -0.16118 0
-6.43145e-05 -0.355871 0
0.0205201 -0.349309 0
0.038694 -0.329568 0
0.0526578 -0.299391 0
-0.000120855 -0.633486 0
0.0389241 -0.621851 0
0.0734226 -0.586676 0
0.0999568 -0.533002 0
-0.000180052 -1.07867 0
0.0704579 -1.05885 0
0.132883 -0.998966 0
0.180909 -0.907563 0
0.0269738 -0.161207 0
0.0314977 -0.140839 0
0.0331099 -0.118383 0
0.0320807 -0.0957607 0
0.0526372 -0.299176 0
0.0613945 -0.261573 0
0.0645135 -0.219773 0
0.0625262 -0.177979 0
0.0999211 -0.532546 0
0.116524 -0.465661 0
0.122457 -0.391213 0
0.118727 -0.31687 0
0.180848 -0.906795 0
0.210854 -0.792895 0
0.221572 -0.666128 0
0.214825 -0.539528 0
-0.000173894 -1.08108 0
0.070389 -1.06121 0
0.132747 -1.00119 0
0.18072 -0.909589 0
-0.000333638 -1.76292 0
0.123744 -1.73049 0
0.233425 -1.63264 0
0.317835 -1.48322 0
-0.000518493 -2.75659 0
0.208112 -2.70583 0
0.392559 -2.55286 0
0.534528 -2.31916 0
-0.000843677 -4.12149 0
0.337279 -4.04551 0
0.636251 -3.81686 0
0.866415 -3.46738 0
0.180658 -0.908821 0
0.21063 -0.794674 0
0.221332 -0.667633 0
0.214588 -0.540758 0
0.31773 -1.48203 0
0.370441 -1.29583 0
0.389295 -1.08869 0
0.377495 -0.88174 0
0.534356 -2.31738 0
0.622953 -2.02618 0
0.654643 -1.70232 0
0.634816 -1.37866 0
0.866142 -3.46485 0
1.00972 -3.02937 0
1.06111 -2.54524 0
1.02905 -2.06124 0
-1.0261 -2.06288 0
-1.05812 -2.54725 0
-1.0069 -3.03171 0
-0.863741 -3.46751 0
-1.60444 -2.94423 0
-1.65438 -3.63577 0
-1.57427 -4.32726 0
-1.35049 -4.94948 0
-2.40272 -4.01298 0
-2.47747 -4.95569 0
-2.35752 -5.89813 0
-2.02248 -6.74637 0
-3.47207 -5.21337 0
-3.57993 -6.43817 0
-3.40657 -7.66235 0
-2.92254 -8.7644 0
-0.864006 -3.47004 0
-0.634474 -3.81975 0
-0.336298 -4.04856 0
0.00092671 -4.12458 0
-1.3509 -4.95294 0
-0.992026 -5.45226 0
-0.525903 -5.77884 0
0.00120933 -5.88746 0
-2.02308 -6.75091 0
-1.48557 -7.43162 0
-0.787487 -7.87668 0
0.00186236 -8.02486 0
-2.9234 -8.77011 0
-2.14666 -9.65449 0
-1.13799 -10.2325 0
0.00246514 -10.4251 0
-3.46894 -5.21018 0
-3.57675 -6.43427 0
-3.40357 -7.65775 0
-2.91996 -8.75918 0
-4.81487 -6.42979 0
-4.96436 -7.94061 0
-4.72399 -9.45045 0
-4.05287 -10.8099 0
-6.42946 -7.51226 0
-6.62897 -9.2776 0
-6.30801 -11.0416 0
-5.41196 -12.63 0
-8.26595 -8.27739 0
-8.52229 -10.2226 0
-8.10965 -12.1661 0
-6.95781 -13.9165 0
-2.92081 -8.76488 0
-2.14473 -9.64878 0
-1.1369 -10.2265 0
0.00261023 -10.419 0
-4.05404 -10.8167 0
-2.97679 -11.9077 0
-1.57799 -12.6206 0
0.0034711 -12.8583 0
-5.41351 -12.6379 0
-3.97494 -13.9126 0
-2.10706 -14.7455 0
0.00459258 -15.0234 0
-6.95978 -13.9249 0
-5.11025 -15.3296 0
-2.70889 -16.2472 0
0.00573745 -16.5534 0
-0.000720104 -4.12458 0
0.336493 -4.04855 0
0.634637 -3.81974 0
0.864133 -3.47002 0
-0.00128557 -5.88747 0
0.525827 -5.77883 0
0.991957 -5.45227 0
1.35086 -4.95293 0
-0.00177471 -8.02487 0
0.787565 -7.87668 0
1.48563 -7.43164 0
2.02314 -6.75092 0
-0.00266457 -10.4252 0
1.13779 -10.2325 0
2.14648 -9.65446 0
2.92328 -8.77004 0
0.863861 -3.46749 0
1.00698 -3.0317 0
1.05815 -2.54723 0
1.02608 -2.06288 0
1.35044 -4.94947 0
1.57424 -4.32726 0
1.65437 -3.63576 0
1.60444 -2.94424 0
2.02252 -6.74638 0
2.35755 -5.89816 0
2.47748 -4.95571 0
2.40271 -4.01301 0
2.92241 -8.76434 0
3.4065 -7.6623 0
3.5799 -6.4381 0
3.47208 -5.21332 0
-0.00251573 -10.4191 0
1.13698 -10.2265 0
2.14479 -9.64883 0
2.92088 -8.76492 0
-0.00349493 -12.8583 0
1.57795 -12.6206 0
2.97676 -11.9077 0
4.05403 -10.8167 0
-0.00454012 -15.0234 0
2.1071 -14.7455 0
3.97496 -13.9127 0
5.41354 -12.6379 0
-0.00581774 -16.5535 0
2.70879 -16.2472 0
5.11016 -15.3296 0
6.95974 -13.9248 0
2.92 -8.75922 0
3.40361 -7.65782 0
3.57676 -6.43433 0
3.46892 -5.21026 0
4.05283 -10.8099 0
4.72398 -9.45043 0
4.96436 -7.94058 0
4.81486 -6.42978 0
5.41197 -12.6301 0
6.30803 -11.0416 0
6.62898 -9.27763 0
6.42944 -7.51231 0
6.95773 -13.9164 0
8.10963 -12.166 0
8.52229 -10.2225 0
8.26594 -8.27731 0
-0.0957609 -0.0320759 0
-0.177976 -0.0625245 0
-0.316881 -0.118723 0
-0.539523 -0.214824 0
-0.118396 -0.033117 0
-0.219769 -0.0645119 0
-0.391216 -0.12246 0
-0.666108 -0.221567 0
-0.140843 -0.0315137 0
-0.26157 -0.0613893 0
-0.465669 -0.116531 0
-0.792884 -0.21084 0
-0.161222 -0.0269944 0
-0.299172 -0.0526253 0
-0.532546 -0.0999281 0
-0.906772 -0.180819 0
-0.54078 -0.214593 0
-0.881748 -0.377486 0
-1.37868 -0.634812 0
-2.06125 -1.02903 0
-0.667642 -0.22133 0
-1.08868 -0.389299 0
-1.70232 -0.654645 0
-2.54522 -1.06112 0
-0.79469 -0.210615 0
-1.29584 -0.37045 0
-2.02619 -0.62295 0
-3.02937 -1.00974 0
-0.908821 -0.180624 0
-1.48201 -0.317736 0
-2.31737 -0.534336 0
-3.46482 -0.866159 0
-0.161179 -0.0270083 0
-0.299389 -0.0526462 0
-0.533012 -0.0999642 0
-0.907558 -0.180882 0
-0.177539 -0.0198677 0
-0.329566 -0.0386824 0
-0.586678 -0.0734364 0
-0.998952 -0.132853 0
-0.188114 -0.0105492 0
-0.349308 -0.0205067 0
-0.621855 -0.0389399 0
-1.05885 -0.0704225 0
-0.191747 3.05047e-05 0
-0.355871 8.10997e-05 0
-0.633482 0.000107756 0
-1.07866 0.000221748 0
-0.909607 -0.180686 0
-1.48323 -0.317842 0
-2.31918 -0.53451 0
-3.46739 -0.866434 0
-1.00119 -0.132706 0
-1.63263 -0.233443 0
-2.55285 -0.392545 0
-3.81684 -0.636295 0
-1.06122 -0.0703396 0
-1.7305 -0.123766 0
-2.70583 -0.208095 0
-4.04551 -0.337332 0
-1.08106 0.000231871 0
-1.76291 0.00031655 0
-2.75658 0.000546831 0
-4.12146 0.000800425 0
-2.06289 -1.02609 0
-2.94427 -1.60442 0
-4.01303 -2.4027 0
-5.21339 -3.47203 0
-2.54721 -1.05812 0
-3.63576 -1.65439 0
-4.95568 -2.47747 0
-6.43813 -3.57994 0
-3.0317 -1.00689 0
-4.32728 -1.57428 0
-5.89816 -2.35752 0
-7.66235 -3.40661 0
-3.46746 -0.863694 0
-4.94945 -1.35049 0
-6.74634 -2.02244 0
-8.76434 -2.92254 0
-5.21022 -3.46889 0
-6.42983 -4.81483 0
-7.51229 -6.42941 0
-8.27741 -8.26591 0
-6.43426 -3.57674 0
-7.94059 -4.96438 0
-9.27758 -6.62898 0
-10.2226 -8.52233 0
-7.65778 -3.40356 0
-9.45046 -4.72401 0
-11.0416 -6.30802 0
-12.1661 -8.10969 0
-8.75915 -2.91991 0
-10.8098 -4.05283 0
-12.63 -5.4119 0
-13.9165 -6.95778 0
-3.47003 -0.863968 0
-4.95296 -1.35091 0
-6.75093 -2.02306 0
-8.7701 -2.92342 0
-3.81973 -0.634433 0
-5.45226 -0.992045 0
-7.43162 -1.48555 0
-9.65448 -2.1467 0
-4.04856 -0.336254 0
-5.77885 -0.525929 0
-7.87669 -0.787472 0
-10.2325 -1.13804 0
-4.12457 0.0009846 0
-5.88745 0.00119564 0
-8.02485 0.00189522 0
-10.4251 0.00242669 0
-8.7649 -2.92078 0
-10.8167 -4.05403 0
-12.6379 -5.41349 0
-13.9249 -6.95979 0
-9.6488 -2.14471 0
-11.9077 -2.9768 0
-13.9126 -3.97493 0
-15.3296 -5.11027 0
-10.2266 -1.13689 0
-12.6206 -1.578 0
-14.7455 -2.10706 0
-16.2472 -2.70891 0
-10.4191 0.00263502 0
-12.8583 0.00347862 0
-15.0234 0.00461091 0
-16.5535 0.00573666 0
-0.191746 -7.59293e-05 0
-0.35587 -6.29824e-05 0
-0.633481 -0.000127433 0
-1.07866 -0.000175857 0
-0.18811 0.0105057 0
-0.34931 0.020524 0
-0.621855 0.0389215 0
-1.05886 0.0704666 0
-0.17753 0.0198314 0
-0.329568 0.038698 0
-0.586675 0.0734215 0
-0.998957 0.132892 0
-0.161169 0.0269806 0
-0.299394 0.0526574 0
-0.53301 0.0999521 0
-0.907568 0.180909 0
-1.08106 -0.000164685 0
-1.76291 -0.000345674 0
-2.75657 -0.00052144 0
-4.12146 -0.000869474 0
-1.06121 0.070404 0
-1.7305 0.12374 0
-2.70583 0.208121 0
-4.04552 0.337269 0
-1.00119 0.132763 0
-1.63263 0.233422 0
-2.55285 0.392569 0
-3.81685 0.636244 0
-0.909601 0.180727 0
-1.48324 0.317824 0
-2.31918 0.534525 0
-3.46741 0.866391 0
-0.161209 0.0269676 0
-0.299177 0.0526374 0
-0.532544 0.0999174 0
-0.906784 0.180849 0
-0.14083 0.031496 0
-0.261574 0.0613956 0
-0.465665 0.116523 0
-0.792892 0.210856 0
-0.11838 0.0331115 0
-0.219774 0.0645146 0
-0.391213 0.122458 0
-0.66612 0.221573 0
-0.095749 0.032081 0
-0.177981 0.0625239 0
-0.316875 0.118726 0
-0.539528 0.214821 0
-0.908816 0.180667 0
-1.48202 0.317721 0
-2.31737 0.534356 0
-3.46484 0.866123 0
-0.79468 0.210638 0
-1.29584 0.370438 0
-2.02618 0.622957 0
-3.02938 1.00971 0
-0.667635 0.221339 0
-1.08868 0.389295 0
-1.70232 0.654649 0
-2.54524 1.06111 0
-0.540768 0.214588 0
-0.881747 0.377491 0
-1.37867 0.634812 0
-2.06125 1.02904 0
-4.12456 -0.00068166 0
-5.88744 -0.00132512 0
-8.02483 -0.00177492 0
-10.4251 -0.00274364 0
-4.04857 0.336545 0
-5.77885 0.52581 0
-7.87669 0.787592 0
-10.2325 1.13775 0
-3.81975 0.634685 0
-5.45225 0.991947 0
-7.43162 1.48566 0
-9.65446 2.14645 0
-3.47006 0.864152 0
-4.95296 1.35083 0
-6.75095 2.02313 0
-8.7701 2.92322 0
-10.419 -0.00253156 0
-12.8583 -0.00353514 0
-15.0234 -0.00457534 0
-16.5535 -0.00587555 0
-10.2266 1.13699 0
-12.6206 1.57796 0
-14.7455 2.10711 0
-16.2472 2.7088 0
-9.64884 2.14481 0
-11.9077 2.97677 0
-13.9126 3.97498 0
-15.3296 5.11017 0
-8.76499 2.92084 0
-10.8167 4.05399 0
-12.6379 5.4135 0
-13.9249 6.95969 0
-3.4675 0.863885 0
-4.94945 1.35042 0
-6.74636 2.02253 0
-8.76434 2.92236 0
-3.03173 1.007 0
-4.32726 1.57423 0
-5.89816 2.35756 0
-7.66233 3.40649 0
-2.54726 1.05816 0
-3.63575 1.65437 0
-4.9557 2.47749 0
-6.43812 3.5799 0
-2.06292 1.02607 0
-2.94425 1.60444 0
-4.01302 2.40269 0
-5.21337 3.47207 0
-8.75923 2.91998 0
-10.8098 4.05282 0
-12.63 5.41195 0
-13.9164 6.95772 0
-7.65785 3.4036 0
-9.45043 4.72399 0
-11.0416 6.30803 0
-12.1661 8.10964 0
-6.43434 3.57675 0
-7.94057 4.96437 0
-9.27762 6.62898 0
-10.2225 8.52231 0
-5.21029 3.46889 0
-6.42978 4.81485 0
-7.51231 6.42942 0
-8.27732 8.26594 0
-8.26989 -8.26982 0
-8.5263 -10.2134 0
-8.11344 -12.1553 0
-6.96106 -13.9042 0
-10.2134 -8.52631 0
-10.5301 -10.5301 0
-10.0203 -12.532 0
-8.59715 -14.3351 0
-12.1554 -8.11348 0
-12.532 -10.0203 0
-11.9252 -11.9253 0
-10.2317 -13.641 0
-13.9042 -6.96105 0
-14.3351 -8.59708 0
-13.641 -10.2317 0
-11.7039 -11.7038 0
-6.96303 -13.9127 0
-5.11267 -15.3162 0
-2.71026 -16.2331 0
0.00557302 -16.5391 0
-8.59957 -14.3437 0
-6.31416 -15.7907 0
-3.34698 -16.7359 0
0.00713876 -17.0514 0
-10.2345 -13.6492 0
-7.5146 -15.0262 0
-3.98337 -15.9256 0
0.00821554 -16.2258 0
-11.7072 -11.7109 0
-8.59572 -12.8924 0
-4.55629 -13.6642 0
0.00962252 -13.9217 0
-13.9127 -6.96306 0
-14.3437 -8.59954 0
-13.6492 -10.2346 0
-11.7109 -11.7071 0
-15.3163 -5.11274 0
-15.7907 -6.31413 0
-15.0262 -7.51463 0
-12.8924 -8.59566 0
-16.2331 -2.71034 0
-16.7359 -3.34695 0
-15.9256 -3.98341 0
-13.6642 -4.55621 0
-16.5391 0.00549889 0
-17.0514 0.00718542 0
-16.2259 0.0081821 0
-13.9218 0.00970581 0
-11.7142 -11.7142 0
-8.60096 -12.896 0
-4.55926 -13.6679 0
0.00922541 -13.9256 0
-12.896 -8.60102 0
-9.4686 -9.46857 0
-5.01903 -10.0354 0
0.0103679 -10.2245 0
-13.6679 -4.55931 0
-10.0354 -5.019 0
-5.31952 -5.31954 0
0.0107781 -5.41958 0
-13.9256 0.00917127 0
-10.2245 0.0103814 0
-5.41964 0.0107379 0
0.0112277 0.0112536 0
-0.00598674 -16.5391 0
2.70984 -16.2332 0
5.11232 -15.3163 0
6.96279 -13.9127 0
-0.00694872 -17.0514 0
3.34714 -16.7359 0
6.31429 -15.7907 0
8.59969 -14.3437 0
-0.008362 -16.2258 0
3.9832 -15.9256 0
7.51446 -15.0262 0
10.2345 -13.6492 0
-0.00917077 -13.9218 0
4.55668 -13.6642 0
8.59606 -12.8924 0
11.7074 -11.7109 0
6.96078 -13.9043 0
8.11329 -12.1554 0
8.52625 -10.2135 0
8.26991 -8.26992 0
8.59724 -14.335 0
10.0203 -12.532 0
10.5301 -10.5301 0
10.2134 -8.52629 0
10.2316 -13.641 0
11.9252 -11.9252 0
12.532 -10.0203 0
12.1554 -8.11347 0
11.7042 -11.7039 0
13.6412 -10.2317 0
14.3351 -8.59712 0
13.9042 -6.96108 0
-0.00957788 -13.9256 0
4.55889 -13.6679 0
8.60065 -12.896 0
11.714 -11.7142 0
-0.0101911 -10.2245 0
5.01916 -10.0354 0
9.46871 -9.46859 0
12.8961 -8.60103 0
-0.0109071 -5.41958 0
5.31936 -5.31952 0
10.0352 -5.01896 0
13.6678 -4.55926 0
-0.0108091 0.0112578 0
5.42 0.0106856 0
10.2248 0.0102883 0
13.9259 0.00903913 0
11.7107 -11.7071 0
13.649 -10.2345 0
14.3436 -8.59948 0
13.9127 -6.963 0
12.8925 -8.59569 0
15.0262 -7.51465 0
15.7907 -6.31417 0
15.3162 -5.11276 0
13.6641 -4.55618 0
15.9255 -3.98334 0
16.7359 -3.3469 0
16.2331 -2.71027 0
13.922 0.00955795 0
16.226 0.00804228 0
17.0515 0.00702219 0
16.5391 0.00537113 0
-16.5391 -0.00611787 0
-17.0514 -0.00695928 0
-16.2258 -0.00844891 0
-13.9218 -0.009133 0
-16.2332 2.70977 0
-16.7359 3.34719 0
-15.9256 3.98318 0
-13.6642 4.55679 0
-15.3163 5.11225 0
-15.7907 6.31434 0
-15.0262 7.51444 0
-12.8924 8.59615 0
-13.9128 6.96268 0
-14.3437 8.59967 0
-13.6492 10.2344 0
-11.7109 11.7075 0
-13.9256 -0.00967753 0
-10.2245 -0.0102114 0
-5.41964 -0.010966 0
0.0112237 -0.0107854 0
-13.6679 4.55886 0
-10.0354 5.0192 0
-5.31951 5.31936 0
0.0107452 5.42006 0
-12.8959 8.60063 0
-9.46862 9.46874 0
-5.019 10.0352 0
0.010301 10.2249 0
-11.7141 11.7139 0
-8.60101 12.8961 0
-4.55923 13.6678 0
0.0091415 13.9259 0
-13.9043 6.9607 0
-14.3351 8.59725 0
-13.641 10.2315 0
-11.7039 11.7042 0
-12.1554 8.11325 0
-12.532 10.0203 0
-11.9252 11.9252 0
-10.2317 13.6412 0
-10.2135 8.52623 0
-10.5301 10.5301 0
-10.0203 12.532 0
-8.5971 14.3351 0
-8.26988 8.26989 0
-8.52629 10.2134 0
-8.11346 12.1553 0
-6.96101 13.9042 0
-11.7071 11.7106 0
-8.59574 12.8925 0
-4.55624 13.6641 0
0.00955461 13.9221 0
-10.2344 13.649 0
-7.51465 15.0262 0
-3.98334 15.9255 0
0.00810693 16.226 0