# vtk DataFile Version 3.0
#This file was generated by the deal.II library on 2020/8/22 at 21:53:45
ASCII
DATASET UNSTRUCTURED_GRID

POINTS 144 double
-1 -1 0
-0.666667 -1 0
-1 -0.666667 0
-0.666667 -0.666667 0
-0.666667 -1 0
-0.333333 -1 0
-0.666667 -0.666667 0
-0.333333 -0.666667 0
-1 -0.666667 0
-0.666667 -0.666667 0
-1 -0.333333 0
-0.666667 -0.333333 0
-0.666667 -0.666667 0
-0.333333 -0.666667 0
-0.666667 -0.333333 0
-0.333333 -0.333333 0
-0.333333 -1 0
-5.55112e-17 -1 0
-0.333333 -0.666667 0
-5.55112e-17 -0.666667 0
-5.55112e-17 -1 0
0.333333 -1 0
-5.55112e-17 -0.666667 0
0.333333 -0.666667 0
-0.333333 -0.666667 0
-5.55112e-17 -0.666667 0
-0.333333 -0.333333 0
-5.55112e-17 -0.333333 0
-5.55112e-17 -0.666667 0
0.333333 -0.666667 0
-5.55112e-17 -0.333333 0
0.333333 -0.333333 0
0.333333 -1 0
0.666667 -1 0
0.333333 -0.666667 0
0.666667 -0.666667 0
0.666667 -1 0
1 -1 0
0.666667 -0.666667 0
1 -0.666667 0
0.333333 -0.666667 0
0.666667 -0.666667 0
0.333333 -0.333333 0
0.666667 -0.333333 0
0.666667 -0.666667 0
1 -0.666667 0
0.666667 -0.333333 0
1 -0.333333 0
-1 -0.333333 0
-0.666667 -0.333333 0
-1 -5.55112e-17 0
-0.666667 -5.55112e-17 0
-0.666667 -0.333333 0
-0.333333 -0.333333 0
-0.666667 -5.55112e-17 0
-0.333333 -5.55112e-17 0
-1 -5.55112e-17 0
-0.666667 -5.55112e-17 0
-1 0.333333 0
-0.666667 0.333333 0
-0.666667 -5.55112e-17 0
-0.333333 -5.55112e-17 0
-0.666667 0.333333 0
-0.333333 0.333333 0
-0.333333 -0.333333 0
-5.55112e-17 -0.333333 0
-0.333333 -5.55112e-17 0
-5.55112e-17 -5.55112e-17 0
-5.55112e-17 -0.333333 0
0.333333 -0.333333 0
-5.55112e-17 -5.55112e-17 0
0.333333 -5.55112e-17 0
-0.333333 -5.55112e-17 0
-5.55112e-17 -5.55112e-17 0
-0.333333 0.333333 0
-5.55112e-17 0.333333 0
-5.55112e-17 -5.55112e-17 0
0.333333 -5.55112e-17 0
-5.55112e-17 0.333333 0
0.333333 0.333333 0
0.333333 -0.333333 0
0.666667 -0.333333 0
0.333333 -5.55112e-17 0
0.666667 -5.55112e-17 0
0.666667 -0.333333 0
1 -0.333333 0
0.666667 -5.55112e-17 0
1 -5.55112e-17 0
0.333333 -5.55112e-17 0
0.666667 -5.55112e-17 0
0.333333 0.333333 0
0.666667 0.333333 0
0.666667 -5.55112e-17 0
1 -5.55112e-17 0
0.666667 0.333333 0
1 0.333333 0
-1 0.333333 0
-0.666667 0.333333 0
-1 0.666667 0
-0.666667 0.666667 0
-0.666667 0.333333 0
-0.333333 0.333333 0
-0.666667 0.666667 0
-0.333333 0.666667 0
-1 0.666667 0
-0.666667 0.666667 0
-1 1 0
-0.666667 1 0
-0.666667 0.666667 0
-0.333333 0.666667 0
-0.666667 1 0
-0.333333 1 0
-0.333333 0.333333 0
-5.55112e-17 0.333333 0
-0.333333 0.666667 0
-5.55112e-17 0.666667 0
-5.55112e-17 0.333333 0
0.333333 0.333333 0
-5.55112e-17 0.666667 0
0.333333 0.666667 0
-0.333333 0.666667 0
-5.55112e-17 0.666667 0
-0.333333 1 0
-5.55112e-17 1 0
-5.55112e-17 0.666667 0
0.333333 0.666667 0
-5.55112e-17 1 0
0.333333 1 0
0.333333 0.333333 0
0.666667 0.333333 0
0.333333 0.666667 0
0.666667 0.666667 0
0.666667 0.333333 0
1 0.333333 0
0.666667 0.666667 0
1 0.666667 0
0.333333 0.666667 0
0.666667 0.666667 0
0.333333 1 0
0.666667 1 0
0.666667 0.666667 0
1 0.666667 0
0.666667 1 0
1 1 0

CELLS 36 180
4	0	1	3	2
4	4	5	7	6
4	8	9	11	10
4	12	13	15	14
4	16	17	19	18
4	20	21	23	22
4	24	25	27	26
4	28	29	31	30
4	32	33	35	34
4	36	37	39	38
4	40	41	43	42
4	44	45	47	46
4	48	49	51	50
4	52	53	55	54
4	56	57	59	58
4	60	61	63	62
4	64	65	67	66
4	68	69	71	70
4	72	73	75	74
4	76	77	79	78
4	80	81	83	82
4	84	85	87	86
4	88	89	91	90
4	92	93	95	94
4	96	97	99	98
4	100	101	103	102
4	104	105	107	106
4	108	109	111	110
4	112	113	115	114
4	116	117	119	118
4	120	121	123	122
4	124	125	127	126
4	128	129	131	130
4	132	133	135	134
4	136	137	139	138
4	140	141	143	142

CELL_TYPES 36
 9 9 9 9 9 9 9 9 9 9 9 9 9 9 9 9 9 9 9 9 9 9 9 9 9 9 9 9 9 9 9 9 9 9 9 9
POINT_DATA 144
VECTORS gradient double
-4.09529 4.10068 0
-0.775516 3.44811 0
-2.7813 1.69185 0
-4.28573 -0.520632 0
-0.608088 3.65873 0
-1.37872 2.16619 0
-5.17603 -6.28031 0
0.931895 -7.54228 0
-2.66352 0.858029 0
-10.2862 -1.6422 0
-0.757141 -2.29782 0
-9.49279 2.35988 0
-11.4416 -7.62362 0
7.06956 -8.59981 0
-11.0123 8.32557 0
6.36116 8.8849 0
-1.42116 1.99217 0
-1.22535 0.0545764 0
0.234622 -1.48876 0
-2.76457 0.466383 0
-1.40797 0.05302 0
-1.93461 0.0545655 0
-1.08075 0.412984 0
-4.70702 -2.36162 0
6.27722 -2.36136 0
-2.96482 0.285231 0
5.40871 2.67723 0
-3.63431 -1.36259 0
-0.920674 0.259309 0
-10.4603 -3.52914 0
-1.48838 -1.29047 0
-11.0885 1.69041 0
-2.45412 0.184129 0
-4.7655 -0.146248 0
-6.23981 -8.0824 0
-1.65813 -8.42843 0
-5.17702 -0.258008 0
-4.4717 -0.171715 0
-2.58627 -2.51516 0
-5.47954 -0.268932 0
-12.1863 -9.6088 0
4.41496 -9.72792 0
-12.5727 7.6392 0
5.31819 8.3807 0
3.337 -3.54136 0
-6.45058 -0.0874694 0
4.40047 2.24946 0
-5.93319 0.186305 0
-0.887195 -2.86944 0
-3.78617 0.669437 0
-0.0835185 -3.46004 0
-0.597676 -3.4107 0
-4.9455 6.44047 0
0.423115 7.24134 0
-0.836227 -3.57067 0
-2.51916 -2.86341 0
-0.0837871 -3.59356 0
-0.543294 -1.83979 0
1.6769 -3.43033 0
-2.46316 -5.41236 0
-0.80772 -1.6428 0
-2.60201 -0.846296 0
-3.38433 -11.4668 0
1.59551 -10.432 0
-0.422098 1.25784 0
-3.41971 -1.54384 0
-2.6869 -2.65854 0
-2.59536 -1.58267 0
-1.67855 -1.50213 0
-5.1077 0.736683 0
-2.69447 -1.41725 0
-2.61031 -2.56592 0
-2.7569 -1.04813 0
-2.43521 -1.75394 0
0.21257 -4.62472 0
-3.50761 -2.09573 0
-2.36087 -1.41714 0
-2.32219 -1.72145 0
-2.60538 -1.7595 0
-2.37476 -1.78078 0
-6.36101 6.60252 0
-0.943825 7.53589 0
-2.56385 -3.09217 0
-3.10163 -2.28461 0
-1.73669 1.48285 0
-4.98684 0.334796 0
-3.08389 -1.79241 0
-2.73753 0.337775 0
-2.47036 -2.04879 0
-3.26412 -1.36027 0
-2.29932 -1.74982 0
-2.17378 -0.999344 0
-3.35589 -1.04279 0
-3.1564 0.165322 0
-2.16996 -1.05181 0
-2.2469 -0.00324244 0
1.85092 -3.50708 0
-8.51598 -6.3197 0
2.11073 -5.02301 0
-7.64377 -1.65109 0
-9.62176 -12.4706 0
7.83409 -11.5629 0
-8.7384 4.63648 0
7.93877 4.77587 0
1.92295 -5.22378 0
-1.89314 -3.18507 0
-0.0830833 -5.46446 0
-0.388754 -7.89019 0
-2.77044 2.8978 0
2.03915 2.87753 0
-0.282994 -8.82598 0
0.0217418 -8.32786 0
6.25287 -5.64388 0
-4.01791 -2.204 0
6.34592 -1.36658 0
-3.32988 -3.36416 0
-2.91623 -2.04484 0
-2.34312 -1.85842 0
-2.19605 -3.5654 0
-1.4985 -2.18194 0
0.618532 -2.98919 0
-2.82462 -3.61713 0
0.248312 -7.31819 0
0.325464 -3.70421 0
-1.88639 -3.95615 0
-1.54312 -2.3298 0
0.147449 -4.15128 0
-0.0164477 -2.42922 0
-2.28693 -1.84934 0
-2.1574 -1.02185 0
-1.39492 -2.17114 0
-1.17467 -1.10598 0
-2.15348 -1.04613 0
-2.25562 0.00165343 0
-1.13824 -1.10069 0
-1.17266 -0.00690786 0
-1.41736 -2.31542 0
-1.17813 -1.15554 0
-0.00330127 -2.43458 0
0.0133414 -1.12131 0
-1.14164 -1.1486 0
-1.17464 -0.0142459 0
0.0161984 -1.11226 0
0.0225849 -0.0210934 0
SCALARS solution double 1
LOOKUP_TABLE default
-4.80432 -4.10563 -5.70242 -5.06244 -4.14733 -3.84693 -4.5963 -3.86046 -5.77434 -4.57041 -5.49935 -4.76237 -3.39567 -2.61025 -3.58979 -2.73791 -3.77939 -3.38897 -4.35018 -3.48351 -3.38265 -2.82766 -3.46797 -3.01428 -3.83484 -3.53632 -3.95797 -3.35785 -3.51314 -2.52979 -3.34938 -2.19698 -2.88118 -1.66792 -2.57057 -1.17473 -1.6172 0.0470952 -1.67164 0.171694 -1.39115 -0.00744635 -0.998472 0.284609 -1.20863 0.158137 -0.955588 0.138231 -5.45244 -5.20868 -4.38386 -4.23585 -4.73163 -3.93756 -4.29136 -3.72052 -4.38974 -4.25085 -3.17912 -3.49991 -4.31392 -3.72803 -2.99204 -2.75115 -4.43594 -3.30401 -3.67357 -2.80012 -3.29903 -2.69355 -2.81425 -1.89534 -3.67946 -2.81129 -3.23224 -2.14698 -2.8154 -2.04521 -2.30561 -1.47492 -2.21502 -0.937585 -1.92822 -0.987549 -1.44874 0.152684 -0.952238 7.21841e-05 -2.06619 -1.10442 -1.4738 -0.737028 -1.08448 0.0101905 -0.734346 -0.00607323 -3.23959 -3.00236 -1.83022 -1.75341 -1.76 -1.52745 -0.559167 -0.500594 -1.76496 -2.20163 -0.0309557 0.0994508 -1.71105 -1.65942 0.0838879 0.1407 -2.72814 -2.17423 -1.63335 -1.25987 -2.32354 -1.47233 -1.39845 -0.805384 -2.10424 -1.23516 0.150931 0.00892582 -1.38161 -0.808159 0.0195397 0.00946296 -1.4682 -0.735026 -0.803089 -0.383238 -0.733882 -0.00664376 -0.380574 -0.00648738 -0.807103 -0.384283 0.00881751 0.00670822 -0.381433 -0.00644846 0.00664054 0.000178157 
SCALARS u_post double 1
LOOKUP_TABLE default
-4.95786 -4.13782 -5.78375 -4.54193 -4.32016 -4.01508 -4.02175 -3.29901 -5.96414 -3.99414 -5.67582 -4.11059 -4.3619 -3.67451 -4.44682 -3.70143 -3.83667 -3.48982 -3.84249 -3.50681 -3.50333 -2.89564 -3.49559 -2.45304 -3.29868 -3.68993 -3.36196 -3.50895 -3.6809 -1.92458 -3.52381 -1.60055 -3.08373 -1.88002 -1.927 -0.610391 -1.67466 -0.0853074 -1.1604 0.102668 -2.26136 -0.981664 -1.96734 -0.782582 -0.647123 -0.00840503 -0.411243 -0.0201589 -5.4797 -4.63686 -4.46316 -4.25202 -4.10675 -3.33664 -4.43603 -3.88885 -4.45016 -4.26205 -3.19144 -2.97104 -4.44448 -3.87294 -2.42512 -2.14126 -3.88032 -3.34167 -3.70649 -2.90398 -3.33817 -2.14501 -2.91662 -1.93777 -3.70312 -2.91572 -2.661 -2.18363 -2.8209 -2.04813 -2.29471 -1.47005 -1.62998 -0.405364 -2.08143 -1.1385 -0.943545 0.104492 -0.978538 -0.0875208 -2.07205 -1.11034 -1.46763 -0.730949 -1.08453 0.0112619 -0.735751 -0.0026336 -3.37308 -2.42926 -1.94171 -1.13883 -2.80272 -2.48453 -1.48147 -1.33287 -1.76634 -1.66319 -0.0710067 0.1062 -1.12039 -1.01018 -0.0284075 0.00280955 -2.12284 -2.34191 -0.995753 -1.40011 -2.31716 -1.4681 -1.38521 -0.797374 -1.51963 -1.24155 0.108192 -0.0942207 -1.36083 -0.8003 0.0109856 -0.004226 -1.46972 -0.733755 -0.802488 -0.380471 -0.735806 -0.000212962 -0.381376 0.000901502 -0.803459 -0.379944 -0.00112374 -0.000831374 -0.38135 0.000300008 -5.29551e-05 -0.000119513 
