# vtk DataFile Version 3.0
#This file was generated by the deal.II library on 2020/8/22 at 21:53:46
ASCII
DATASET UNSTRUCTURED_GRID

POINTS 2304 double
-1 -1 0
-0.916667 -1 0
-1 -0.916667 0
-0.916667 -0.916667 0
-0.916667 -1 0
-0.833333 -1 0
-0.916667 -0.916667 0
-0.833333 -0.916667 0
-1 -0.916667 0
-0.916667 -0.916667 0
-1 -0.833333 0
-0.916667 -0.833333 0
-0.916667 -0.916667 0
-0.833333 -0.916667 0
-0.916667 -0.833333 0
-0.833333 -0.833333 0
-0.833333 -1 0
-0.75 -1 0
-0.833333 -0.916667 0
-0.75 -0.916667 0
-0.75 -1 0
-0.666667 -1 0
-0.75 -0.916667 0
-0.666667 -0.916667 0
-0.833333 -0.916667 0
-0.75 -0.916667 0
-0.833333 -0.833333 0
-0.75 -0.833333 0
-0.75 -0.916667 0
-0.666667 -0.916667 0
-0.75 -0.833333 0
-0.666667 -0.833333 0
-1 -0.833333 0
-0.916667 -0.833333 0
-1 -0.75 0
-0.916667 -0.75 0
-0.916667 -0.833333 0
-0.833333 -0.833333 0
-0.916667 -0.75 0
-0.833333 -0.75 0
-1 -0.75 0
-0.916667 -0.75 0
-1 -0.666667 0
-0.916667 -0.666667 0
-0.916667 -0.75 0
-0.833333 -0.75 0
-0.916667 -0.666667 0
-0.833333 -0.666667 0
-0.833333 -0.833333 0
-0.75 -0.833333 0
-0.833333 -0.75 0
-0.75 -0.75 0
-0.75 -0.833333 0
-0.666667 -0.833333 0
-0.75 -0.75 0
-0.666667 -0.75 0
-0.833333 -0.75 0
-0.75 -0.75 0
-0.833333 -0.666667 0
-0.75 -0.666667 0
-0.75 -0.75 0
-0.666667 -0.75 0
-0.75 -0.666667 0
-0.666667 -0.666667 0
-0.666667 -1 0
-0.583333 -1 0
-0.666667 -0.916667 0
-0.583333 -0.916667 0
-0.583333 -1 0
-0.5 -1 0
-0.583333 -0.916667 0
-0.5 -0.916667 0
-0.666667 -0.916667 0
-0.583333 -0.916667 0
-0.666667 -0.833333 0
-0.583333 -0.833333 0
-0.583333 -0.916667 0
-0.5 -0.916667 0
-0.583333 -0.833333 0
-0.5 -0.833333 0
-0.5 -1 0
-0.416667 -1 0
-0.5 -0.916667 0
-0.416667 -0.916667 0
-0.416667 -1 0
-0.333333 -1 0
-0.416667 -0.916667 0
-0.333333 -0.916667 0
-0.5 -0.916667 0
-0.416667 -0.916667 0
-0.5 -0.833333 0
-0.416667 -0.833333 0
-0.416667 -0.916667 0
-0.333333 -0.916667 0
-0.416667 -0.833333 0
-0.333333 -0.833333 0
-0.666667 -0.833333 0
-0.583333 -0.833333 0
-0.666667 -0.75 0
-0.583333 -0.75 0
-0.583333 -0.833333 0
-0.5 -0.833333 0
-0.583333 -0.75 0
-0.5 -0.75 0
-0.666667 -0.75 0
-0.583333 -0.75 0
-0.666667 -0.666667 0
-0.583333 -0.666667 0
-0.583333 -0.75 0
-0.5 -0.75 0
-0.583333 -0.666667 0
-0.5 -0.666667 0
-0.5 -0.833333 0
-0.416667 -0.833333 0
-0.5 -0.75 0
-0.416667 -0.75 0
-0.416667 -0.833333 0
-0.333333 -0.833333 0
-0.416667 -0.75 0
-0.333333 -0.75 0
-0.5 -0.75 0
-0.416667 -0.75 0
-0.5 -0.666667 0
-0.416667 -0.666667 0
-0.416667 -0.75 0
-0.333333 -0.75 0
-0.416667 -0.666667 0
-0.333333 -0.666667 0
-1 -0.666667 0
-0.916667 -0.666667 0
-1 -0.583333 0
-0.916667 -0.583333 0
-0.916667 -0.666667 0
-0.833333 -0.666667 0
-0.916667 -0.583333 0
-0.833333 -0.583333 0
-1 -0.583333 0
-0.916667 -0.583333 0
-1 -0.5 0
-0.916667 -0.5 0
-0.916667 -0.583333 0
-0.833333 -0.583333 0
-0.916667 -0.5 0
-0.833333 -0.5 0
-0.833333 -0.666667 0
-0.75 -0.666667 0
-0.833333 -0.583333 0
-0.75 -0.583333 0
-0.75 -0.666667 0
-0.666667 -0.666667 0
-0.75 -0.583333 0
-0.666667 -0.583333 0
-0.833333 -0.583333 0
-0.75 -0.583333 0
-0.833333 -0.5 0
-0.75 -0.5 0
-0.75 -0.583333 0
-0.666667 -0.583333 0
-0.75 -0.5 0
-0.666667 -0.5 0
-1 -0.5 0
-0.916667 -0.5 0
-1 -0.416667 0
-0.916667 -0.416667 0
-0.916667 -0.5 0
-0.833333 -0.5 0
-0.916667 -0.416667 0
-0.833333 -0.416667 0
-1 -0.416667 0
-0.916667 -0.416667 0
-1 -0.333333 0
-0.916667 -0.333333 0
-0.916667 -0.416667 0
-0.833333 -0.416667 0
-0.916667 -0.333333 0
-0.833333 -0.333333 0
-0.833333 -0.5 0
-0.75 -0.5 0
-0.833333 -0.416667 0
-0.75 -0.416667 0
-0.75 -0.5 0
-0.666667 -0.5 0
-0.75 -0.416667 0
-0.666667 -0.416667 0
-0.833333 -0.416667 0
-0.75 -0.416667 0
-0.833333 -0.333333 0
-0.75 -0.333333 0
-0.75 -0.416667 0
-0.666667 -0.416667 0
-0.75 -0.333333 0
-0.666667 -0.333333 0
-0.666667 -0.666667 0
-0.583333 -0.666667 0
-0.666667 -0.583333 0
-0.583333 -0.583333 0
-0.583333 -0.666667 0
-0.5 -0.666667 0
-0.583333 -0.583333 0
-0.5 -0.583333 0
-0.666667 -0.583333 0
-0.583333 -0.583333 0
-0.666667 -0.5 0
-0.583333 -0.5 0
-0.583333 -0.583333 0
-0.5 -0.583333 0
-0.583333 -0.5 0
-0.5 -0.5 0
-0.5 -0.666667 0
-0.416667 -0.666667 0
-0.5 -0.583333 0
-0.416667 -0.583333 0
-0.416667 -0.666667 0
-0.333333 -0.666667 0
-0.416667 -0.583333 0
-0.333333 -0.583333 0
-0.5 -0.583333 0
-0.416667 -0.583333 0
-0.5 -0.5 0
-0.416667 -0.5 0
-0.416667 -0.583333 0
-0.333333 -0.583333 0
-0.416667 -0.5 0
-0.333333 -0.5 0
-0.666667 -0.5 0
-0.583333 -0.5 0
-0.666667 -0.416667 0
-0.583333 -0.416667 0
-0.583333 -0.5 0
-0.5 -0.5 0
-0.583333 -0.416667 0
-0.5 -0.416667 0
-0.666667 -0.416667 0
-0.583333 -0.416667 0
-0.666667 -0.333333 0
-0.583333 -0.333333 0
-0.583333 -0.416667 0
-0.5 -0.416667 0
-0.583333 -0.333333 0
-0.5 -0.333333 0
-0.5 -0.5 0
-0.416667 -0.5 0
-0.5 -0.416667 0
-0.416667 -0.416667 0
-0.416667 -0.5 0
-0.333333 -0.5 0
-0.416667 -0.416667 0
-0.333333 -0.416667 0
-0.5 -0.416667 0
-0.416667 -0.416667 0
-0.5 -0.333333 0
-0.416667 -0.333333 0
-0.416667 -0.416667 0
-0.333333 -0.416667 0
-0.416667 -0.333333 0
-0.333333 -0.333333 0
-0.333333 -1 0
-0.25 -1 0
-0.333333 -0.916667 0
-0.25 -0.916667 0
-0.25 -1 0
-0.166667 -1 0
-0.25 -0.916667 0
-0.166667 -0.916667 0
-0.333333 -0.916667 0
-0.25 -0.916667 0
-0.333333 -0.833333 0
-0.25 -0.833333 0
-0.25 -0.916667 0
-0.166667 -0.916667 0
-0.25 -0.833333 0
-0.166667 -0.833333 0
-0.166667 -1 0
-0.0833333 -1 0
-0.166667 -0.916667 0
-0.0833333 -0.916667 0
-0.0833333 -1 0
-5.55112e-17 -1 0
-0.0833333 -0.916667 0
-5.55112e-17 -0.916667 0
-0.166667 -0.916667 0
-0.0833333 -0.916667 0
-0.166667 -0.833333 0
-0.0833333 -0.833333 0
-0.0833333 -0.916667 0
-5.55112e-17 -0.916667 0
-0.0833333 -0.833333 0
-5.55112e-17 -0.833333 0
-0.333333 -0.833333 0
-0.25 -0.833333 0
-0.333333 -0.75 0
-0.25 -0.75 0
-0.25 -0.833333 0
-0.166667 -0.833333 0
-0.25 -0.75 0
-0.166667 -0.75 0
-0.333333 -0.75 0
-0.25 -0.75 0
-0.333333 -0.666667 0
-0.25 -0.666667 0
-0.25 -0.75 0
-0.166667 -0.75 0
-0.25 -0.666667 0
-0.166667 -0.666667 0
-0.166667 -0.833333 0
-0.0833333 -0.833333 0
-0.166667 -0.75 0
-0.0833333 -0.75 0
-0.0833333 -0.833333 0
-5.55112e-17 -0.833333 0
-0.0833333 -0.75 0
-5.55112e-17 -0.75 0
-0.166667 -0.75 0
-0.0833333 -0.75 0
-0.166667 -0.666667 0
-0.0833333 -0.666667 0
-0.0833333 -0.75 0
-5.55112e-17 -0.75 0
-0.0833333 -0.666667 0
-5.55112e-17 -0.666667 0
-5.55112e-17 -1 0
0.0833333 -1 0
-5.55112e-17 -0.916667 0
0.0833333 -0.916667 0
0.0833333 -1 0
0.166667 -1 0
0.0833333 -0.916667 0
0.166667 -0.916667 0
-5.55112e-17 -0.916667 0
0.0833333 -0.916667 0
-5.55112e-17 -0.833333 0
0.0833333 -0.833333 0
0.0833333 -0.916667 0
0.166667 -0.916667 0
0.0833333 -0.833333 0
0.166667 -0.833333 0
0.166667 -1 0
0.25 -1 0
0.166667 -0.916667 0
0.25 -0.916667 0
0.25 -1 0
0.333333 -1 0
0.25 -0.916667 0
0.333333 -0.916667 0
0.166667 -0.916667 0
0.25 -0.916667 0
0.166667 -0.833333 0
0.25 -0.833333 0
0.25 -0.916667 0
0.333333 -0.916667 0
0.25 -0.833333 0
0.333333 -0.833333 0
-5.55112e-17 -0.833333 0
0.0833333 -0.833333 0
-5.55112e-17 -0.75 0
0.0833333 -0.75 0
0.0833333 -0.833333 0
0.166667 -0.833333 0
0.0833333 -0.75 0
0.166667 -0.75 0
-5.55112e-17 -0.75 0
0.0833333 -0.75 0
-5.55112e-17 -0.666667 0
0.0833333 -0.666667 0
0.0833333 -0.75 0
0.166667 -0.75 0
0.0833333 -0.666667 0
0.166667 -0.666667 0
0.166667 -0.833333 0
0.25 -0.833333 0
0.166667 -0.75 0
0.25 -0.75 0
0.25 -0.833333 0
0.333333 -0.833333 0
0.25 -0.75 0
0.333333 -0.75 0
0.166667 -0.75 0
0.25 -0.75 0
0.166667 -0.666667 0
0.25 -0.666667 0
0.25 -0.75 0
0.333333 -0.75 0
0.25 -0.666667 0
0.333333 -0.666667 0
-0.333333 -0.666667 0
-0.25 -0.666667 0
-0.333333 -0.583333 0
-0.25 -0.583333 0
-0.25 -0.666667 0
-0.166667 -0.666667 0
-0.25 -0.583333 0
-0.166667 -0.583333 0
-0.333333 -0.583333 0
-0.25 -0.583333 0
-0.333333 -0.5 0
-0.25 -0.5 0
-0.25 -0.583333 0
-0.166667 -0.583333 0
-0.25 -0.5 0
-0.166667 -0.5 0
-0.166667 -0.666667 0
-0.0833333 -0.666667 0
-0.166667 -0.583333 0
-0.0833333 -0.583333 0
-0.0833333 -0.666667 0
-5.55112e-17 -0.666667 0
-0.0833333 -0.583333 0
-5.55112e-17 -0.583333 0
-0.166667 -0.583333 0
-0.0833333 -0.583333 0
-0.166667 -0.5 0
-0.0833333 -0.5 0
-0.0833333 -0.583333 0
-5.55112e-17 -0.583333 0
-0.0833333 -0.5 0
-5.55112e-17 -0.5 0
-0.333333 -0.5 0
-0.25 -0.5 0
-0.333333 -0.416667 0
-0.25 -0.416667 0
-0.25 -0.5 0
-0.166667 -0.5 0
-0.25 -0.416667 0
-0.166667 -0.416667 0
-0.333333 -0.416667 0
-0.25 -0.416667 0
-0.333333 -0.333333 0
-0.25 -0.333333 0
-0.25 -0.416667 0
-0.166667 -0.416667 0
-0.25 -0.333333 0
-0.166667 -0.333333 0
-0.166667 -0.5 0
-0.0833333 -0.5 0
-0.166667 -0.416667 0
-0.0833333 -0.416667 0
-0.0833333 -0.5 0
-5.55112e-17 -0.5 0
-0.0833333 -0.416667 0
-5.55112e-17 -0.416667 0
-0.166667 -0.416667 0
-0.0833333 -0.416667 0
-0.166667 -0.333333 0
-0.0833333 -0.333333 0
-0.0833333 -0.416667 0
-5.55112e-17 -0.416667 0
-0.0833333 -0.333333 0
-5.55112e-17 -0.333333 0
-5.55112e-17 -0.666667 0
0.0833333 -0.666667 0
-5.55112e-17 -0.583333 0
0.0833333 -0.583333 0
0.0833333 -0.666667 0
0.166667 -0.666667 0
0.0833333 -0.583333 0
0.166667 -0.583333 0
-5.55112e-17 -0.583333 0
0.0833333 -0.583333 0
-5.55112e-17 -0.5 0
0.0833333 -0.5 0
0.0833333 -0.583333 0
0.166667 -0.583333 0
0.0833333 -0.5 0
0.166667 -0.5 0
0.166667 -0.666667 0
0.25 -0.666667 0
0.166667 -0.583333 0
0.25 -0.583333 0
0.25 -0.666667 0
0.333333 -0.666667 0
0.25 -0.583333 0
0.333333 -0.583333 0
0.166667 -0.583333 0
0.25 -0.583333 0
0.166667 -0.5 0
0.25 -0.5 0
0.25 -0.583333 0
0.333333 -0.583333 0
0.25 -0.5 0
0.333333 -0.5 0
-5.55112e-17 -0.5 0
0.0833333 -0.5 0
-5.55112e-17 -0.416667 0
0.0833333 -0.416667 0
0.0833333 -0.5 0
0.166667 -0.5 0
0.0833333 -0.416667 0
0.166667 -0.416667 0
-5.55112e-17 -0.416667 0
0.0833333 -0.416667 0
-5.55112e-17 -0.333333 0
0.0833333 -0.333333 0
0.0833333 -0.416667 0
0.166667 -0.416667 0
0.0833333 -0.333333 0
0.166667 -0.333333 0
0.166667 -0.5 0
0.25 -0.5 0
0.166667 -0.416667 0
0.25 -0.416667 0
0.25 -0.5 0
0.333333 -0.5 0
0.25 -0.416667 0
0.333333 -0.416667 0
0.166667 -0.416667 0
0.25 -0.416667 0
0.166667 -0.333333 0
0.25 -0.333333 0
0.25 -0.416667 0
0.333333 -0.416667 0
0.25 -0.333333 0
[...]
POINT_DATA 2304
VECTORS gradient double
0.001337 0.00025932 0
-0.00673332 -5.12832e-05 0
9.79671e-05 -0.00550039 0
-0.00290287 -0.00280178 0
-0.00591461 -8.56456e-05 0
-0.0202038 -0.00335485 0
-0.000714837 -0.0224325 0
-0.0180724 -0.0362214 0
0.00111848 -0.0043448 0
-0.0238867 -0.00024453 0
-0.00434158 -0.0172232 0
-0.0357889 -0.0171653 0
-0.022578 -0.0207393 0
-0.0789849 -0.0306237 0
-0.0307776 -0.0755563 0
-0.157096 -0.156927 0
-0.0219952 -0.00329716 0
-0.0445395 -0.0185836 0
-0.0204703 -0.0630346 0
-0.0611582 -0.170813 0
-0.0528252 -0.0186827 0
-0.0701221 -0.056053 0
-0.0764849 -0.165057 0
-0.120051 -0.482108 0
-0.0862015 -0.0586455 0
-0.186277 -0.162296 0
-0.173805 -0.236238 0
-0.446156 -0.692414 0
-0.211355 -0.156613 0
-0.296756 -0.475932 0
-0.512286 -0.675151 0
-0.785207 -1.90227 0
-0.00293905 -0.0190246 0
-0.0638639 -0.0197598 0
-0.0206381 -0.04165 0
-0.170649 -0.0602182 0
-0.0600721 -0.0828793 0
-0.238534 -0.174219 0
-0.163067 -0.182878 0
-0.693708 -0.445156 0
-0.0208663 -0.0509035 0
-0.163404 -0.0769166 0
-0.0574878 -0.0707661 0
-0.484176 -0.120815 0
-0.155787 -0.209331 0
-0.672922 -0.514025 0
-0.479076 -0.297927 0
-1.90806 -0.785035 0
-0.261639 -0.259882 0
-0.613094 -0.761747 0
-0.761836 -0.610689 0
-1.86895 -1.86502 0
-0.691925 -0.743206 0
-1.02019 -2.08353 0
-2.0894 -1.82797 0
-3.17078 -5.01544 0
-0.739581 -0.692407 0
-1.82633 -2.09039 0
-2.08749 -1.02236 0
-5.025 -3.16752 0
-2.04291 -2.04954 0
-3.10992 -5.54714 0
-5.5502 -3.11201 0
-8.38851 -8.3828 0
-0.0784889 -0.0567663 0
-0.0650165 -0.106041 0
-0.13664 -0.406099 0
-0.121797 -0.867226 0
-0.0578466 -0.107121 0
-0.00948733 -0.131389 0
-0.109174 -0.774072 0
-0.0152546 -1.01213 0
-0.319508 -0.39719 0
-0.268599 -0.868423 0
-0.847941 -1.67822 0
-0.739319 -3.39633 0
-0.245607 -0.771751 0
-0.0309034 -1.01554 0
-0.679927 -3.12302 0
-0.0712282 -3.99565 0
0.00962801 -0.131379 0
0.0575355 -0.107923 0
0.0199723 -1.01094 0
0.111829 -0.776298 0
0.0651714 -0.106399 0
0.0779985 -0.0582297 0
0.124787 -0.868936 0
0.136048 -0.406825 0
0.0259681 -1.0143 0
0.241502 -0.772357 0
0.0786487 -3.99289 0
0.683767 -3.13154 0
0.265781 -0.868302 0
0.318772 -0.396243 0
0.744415 -3.40349 0
0.846993 -1.68378 0
-1.09081 -1.84226 0
-0.934282 -3.71092 0
-3.36292 -4.54816 0
-2.90459 -8.89425 0
-0.861343 -3.41671 0
-0.0928312 -4.36054 0
-2.69646 -8.32707 0
-0.246245 -10.507 0
-3.299 -5.043 0
-2.85355 -9.77558 0
-8.82295 -7.71135 0
-7.58712 -14.7802 0
-2.64923 -9.16454 0
-0.241473 -11.5239 0
-7.07693 -13.9695 0
-0.598096 -17.484 0
0.0851916 -4.35723 0
0.854734 -3.41671 0
0.250797 -10.5025 0
2.69723 -8.34394 0
0.930299 -3.70852 0
1.08975 -1.83778 0
2.90918 -8.90831 0
3.3617 -4.56086 0
0.246788 -11.5181 0
2.65075 -9.16424 0
0.583149 -17.4789 0
7.0633 -13.9845 0
2.8586 -9.77021 0
3.29805 -5.035 0
7.58178 -14.7902 0
8.82181 -7.72152 0
-0.0611165 -0.0801915 0
-0.403221 -0.138446 0
-0.105679 -0.0703652 0
-0.871137 -0.124228 0
-0.395196 -0.322001 0
-1.67402 -0.84933 0
-0.872818 -0.276277 0
-3.40407 -0.740036 0
-0.110079 -0.0626681 0
-0.774526 -0.110215 0
-0.130801 -0.0153141 0
-1.01375 -0.0159983 0
-0.772642 -0.252333 0
-3.1247 -0.677209 0
-1.0163 -0.0393981 0
-3.99594 -0.0687999 0
-1.83583 -1.09496 0
-4.54583 -3.36198 0
-3.7164 -0.942557 0
-8.90283 -2.90426 0
-5.03431 -3.30322 0
-7.71295 -8.81961 0
-9.77861 -2.85471 0
-14.7807 -7.59121 0
-3.41601 -0.866555 0
-8.33086 -2.68943 0
-4.35851 -0.0995662 0
-10.5018 -0.243779 0
-9.16314 -2.64336 0
-13.9744 -7.07154 0
-11.5172 -0.235411 0
-17.4728 -0.604682 0
-0.130986 0.00518132 0
-1.01487 0.021275 0
-0.108407 0.0558816 0
-0.774239 0.114371 0
-1.01757 0.0194217 0
-3.99908 0.0850666 0
-0.768301 0.239079 0
-3.12318 0.689894 0
-0.104622 0.0638285 0
-0.871459 0.127203 0
-0.0585406 0.0799641 0
-0.404541 0.138862 0
-0.869007 0.263643 0
-3.40483 0.749542 0
-0.391828 0.321957 0
-1.67618 0.850859 0
-4.36147 0.0825985 0
-10.5076 0.260103 0
-3.40659 0.856327 0
-8.32731 2.70356 0
-11.5219 0.259967 0
-17.4791 0.585003 0
-9.15058 2.66312 0
-13.9689 7.06166 0
-3.70853 0.931493 0
-8.90442 2.9129 0
-1.82941 1.09585 0
-4.5482 3.36452 0
-9.76937 2.86845 0
-14.782 7.57564 0
-5.02752 3.30582 0
-7.71387 8.82104 0
-8.1234 -8.12304 0
-7.02528 -15.4868 0
-15.487 -7.01685 0
-13.2997 -13.3112 0
-6.55354 -14.6468 0
-0.535663 -18.2972 0
-12.4375 -12.6215 0
-1.00356 -15.731 0
-14.6525 -6.53433 0
-12.6281 -12.439 0
-18.2902 -0.518174 0
-15.7213 -1.01723 0
-11.8114 -11.7939 0
-0.925492 -14.722 0
-14.7202 -0.915849 0
-1.15444 -1.15464 0
0.563957 -18.2912 0
6.57018 -14.6523 0
0.963776 -15.7273 0
12.4067 -12.6182 0
7.04618 -15.4858 0
8.12306 -8.12185 0
13.2808 -13.3016 0
15.4863 -7.01023 0
0.945299 -14.7198 0
11.822 -11.8101 0
1.12492 -1.15479 0
14.6975 -0.896241 0
12.6454 -12.4512 0
14.6526 -6.55143 0
15.7084 -0.993564 0
18.2903 -0.500173 0
-18.2954 0.590047 0
-15.7239 0.956488 0
-14.6448 6.58745 0
-12.62 12.4001 0
-14.7236 0.960968 0
-1.15144 1.12534 0
-11.8158 11.8278 0
-0.91604 14.7031 0
-15.4848 7.05791 0
-13.2961 13.268 0
-8.1223 8.12597 0
-7.01929 15.4849 0
-12.4483 12.6437 0
-0.993412 15.7067 0
-6.56042 14.6468 0
-0.520269 18.294 0
1.12562 1.12214 0
14.7034 0.945489 0
0.931254 14.6987 0
11.8255 11.8445 0
15.7133 0.94004 0
18.2954 0.566102 0
12.6328 12.415 0
14.6456 6.59735 0
0.946258 15.701 0
12.4147 12.6448 0
0.554402 18.2881 0
6.58391 14.6515 0
13.2707 13.2647 0
15.4845 7.04999 0
7.04157 15.4835 0
8.12297 8.12354 0
0.0696387 -0.0568096 0
0.0523236 -0.019612 0
0.119299 -0.484642 0
0.0742293 -0.16514 0
0.0437062 -0.0194358 0
0.0215472 -0.00319281 0
0.0585147 -0.172208 0
0.0185137 -0.0636974 0
0.29642 -0.476535 0
0.212995 -0.155747 0
0.784314 -1.91173 0
0.509108 -0.677421 0
0.187356 -0.162738 0
0.0878659 -0.0588489 0
0.442132 -0.697656 0
0.170986 -0.238212 0
0.0196798 -0.00373938 0
0.00569812 0.000514925 0
0.0161289 -0.0369089 0
-3.50305e-05 -0.0232101 0
0.00679083 8.14845e-05 0
-0.000950519 0.000755149 0
0.00278235 -0.00450003 0
-0.00104666 -0.00583376 0
0.0803763 -0.031066 0
0.0230857 -0.0212426 0
0.154201 -0.159262 0
0.028948 -0.0773818 0
0.0248244 -0.00197174 0
-0.00194108 -0.00445531 0
0.0356021 -0.0224305 0
-0.00337481 -0.01971 0
1.02001 -2.08242 0
0.694863 -0.739083 0
3.17054 -5.03328 0
2.08788 -1.83304 0
0.614955 -0.760991 0
0.264478 -0.259003 0
1.8656 -1.87465 0
0.760039 -0.613053 0
3.1099 -5.54351 0
2.04118 -2.04125 0
8.39065 -8.39598 0
5.55713 -3.11381 0
1.82295 -2.08773 0
0.737477 -0.688972 0
5.02907 -3.17415 0
2.09235 -1.02112 0
0.240888 -0.174582 0
0.0602759 -0.0837275 0
0.691506 -0.449104 0
0.158679 -0.18474 0
0.0654086 -0.0249655 0
-0.00453659 -0.0214613 0
0.170088 -0.0708533 0
-0.0100045 -0.0490727 0
0.670485 -0.513991 0
0.151265 -0.209629 0
1.91188 -0.787926 0
0.471055 -0.297529 0
0.162661 -0.0875761 0
-0.00980379 -0.0591107 0
0.483146 -0.135395 0
-0.0220382 -0.0836231 0
0.000364485 0.00077182 0
-0.00768378 0.000400029 0
0.00193261 -0.00583543 0
-0.0019377 -0.00406385 0
-0.00657337 0.000951416 0
-0.0213883 -0.00312161 0
0.00101712 -0.0230495 0
-0.0155359 -0.0358446 0
0.00103598 -0.00444328 0
-0.026274 -0.00121244 0
0.0057762 -0.0197288 0
-0.0330306 -0.0215957 0
-0.0245033 -0.0207492 0
-0.0832511 -0.0291397 0
-0.0259917 -0.0771907 0
-0.151349 -0.15674 0
-0.023252 -0.00232031 0
-0.046081 -0.0185702 0
-0.0177653 -0.0636264 0
-0.0588069 -0.17061 0
-0.054966 -0.0189193 0
-0.0712088 -0.0554692 0
-0.0749802 -0.164499 0
-0.120989 -0.484032 0
-0.0907087 -0.0579667 0
-0.191319 -0.159534 0
-0.167592 -0.237993 0
-0.440165 -0.692763 0
-0.217321 -0.153599 0
-0.298919 -0.473791 0
-0.507956 -0.675021 0
-0.785398 -1.90712 0
0.00454039 -0.0214827 0
-0.0659529 -0.024173 0
0.012971 -0.0491667 0
-0.16685 -0.0701849 0
-0.0605769 -0.0836118 0
-0.242921 -0.172079 0
-0.154672 -0.185129 0
-0.687297 -0.44613 0
0.0128455 -0.0592509 0
-0.159465 -0.0879701 0
0.021866 -0.083807 0
-0.483532 -0.136148 0
-0.147327 -0.211168 0
-0.66694 -0.513657 0
-0.470396 -0.299312 0
-1.9115 -0.787944 0
-0.266168 -0.258923 0
-0.618668 -0.755893 0
-0.754585 -0.613621 0
-1.86089 -1.8671 0
-0.699373 -0.736642 0
-1.02379 -2.07712 0
-2.08432 -1.82985 0
-3.16804 -5.02326 0
-0.732797 -0.692259 0
-1.82057 -2.08462 0
-2.09001 -1.02432 0
-5.02534 -3.17015 0
-2.04015 -2.0426 0
-3.11222 -5.53858 0
-5.55436 -3.11488 0
-8.38275 -8.38679 0
7.7136 -8.82099 0
5.02402 -3.29781 0
14.7858 -7.58208 0
9.79574 -2.84692 0
4.53346 -3.36222 0
1.82437 -1.09076 0
8.91708 -2.89932 0
3.72956 -0.9355 0
13.9773 -7.08676 0
9.15643 -2.65089 0
17.4787 -0.57962 0
11.53 -0.224791 0
8.3221 -2.69868 0
3.40658 -0.866086 0
10.5134 -0.232166 0
4.36731 -0.092171 0
1.66268 -0.850518 0
0.380807 -0.32112 0
3.41581 -0.73942 0
0.860902 -0.272472 0
0.396516 -0.153461 0
-0.0193913 -0.0941828 0
0.869265 -0.13591 0
-0.03467 -0.0811413 0
3.11536 -0.681402 0
0.751631 -0.250351 0
4.00418 -0.0664329 0
0.99967 -0.0345151 0
0.764525 -0.122093 0
-0.0316173 -0.0728425 0
1.00862 -0.0168194 0
-0.0391782 -0.013211 0
17.4848 0.566557 0
11.5331 0.244174 0
13.9728 7.0783 0
9.14529 2.66477 0
10.5175 0.247781 0
4.36879 0.0790437 0
8.32296 2.70986 0
3.39904 0.857338 0
14.788 7.57304 0
9.78883 2.85933 0
7.71545 8.82149 0
5.01428 3.29961 0
8.92403 2.90942 0
3.72471 0.927927 0
4.5369 3.36385 0
1.8157 1.09158 0
4.0059 0.0804908 0
1.00028 0.0217299 0
3.11662 0.691282 0
0.748509 0.241606 0
1.00912 0.0213591 0
-0.0388032 0.00946975 0
0.764752 0.125246 0
-0.0329504 0.0701979 0
3.42051 0.748635 0
0.85925 0.26481 0
1.66398 0.851614 0
0.376433 0.321277 0
0.871041 0.138926 0
-0.0349435 0.0787552 0
0.395943 0.153797 0
-0.0217226 0.0939976 0
0.0241364 -0.0944154 0
-0.39075 -0.155342 0
0.0297741 -0.0812731 0
-0.875078 -0.13804 0
-0.373761 -0.324073 0
-1.65366 -0.853546 0
-0.865698 -0.274725 0
-3.42195 -0.743771 0
0.0325515 -0.0729418 0
-0.76276 -0.123556 0
0.0343896 -0.0131182 0
-1.01405 -0.0181705 0
-0.748527 -0.251814 0
-3.10969 -0.684337 0
-1.00432 -0.0347206 0
-4.00996 -0.0707776 0
-1.81316 -1.09686 0
-4.52226 -3.36386 0
-3.73343 -0.940198 0
-8.91854 -2.90416 0
-5.01412 -3.30442 0
-7.70829 -8.81951 0
-9.79729 -2.85491 0
-14.7778 -7.5828 0
-3.39821 -0.869087 0
-8.31013 -2.70183 0
-4.37107 -0.0933402 0
-10.517 -0.240945 0
-9.14461 -2.65694 0
-13.9637 -7.08695 0
-11.5325 -0.232782 0
-17.4782 -0.588308 0
0.0346297 0.00964118 0
-1.01338 0.0216374 0
0.0324323 0.0704436 0
-0.764867 0.125788 0
-1.00368 0.0233252 0
-4.00849 0.080215 0
-0.748164 0.243743 0
-3.11581 0.690643 0
0.0306981 0.0790189 0
-0.875683 0.139807 0
0.0230971 0.0941653 0
-0.393803 0.154834 0
-0.863593 0.267302 0
-3.42551 0.74906 0
-0.374177 0.323285 0
-1.66046 0.852808 0
-4.3691 0.0821585 0
-10.5141 0.245948 0
-3.39677 0.861158 0
-8.32289 2.70509 0
-11.5282 0.243378 0
-17.4734 0.566235 0
-9.14328 2.66417 0
-13.9777 7.07135 0
-3.72833 0.932793 0
-8.92745 2.90713 0
-1.8114 1.09584 0
-4.53421 3.36318 0
-9.78989 2.86133 0
-14.7869 7.57053 0
-5.00934 3.30394 0
-7.71774 8.81902 0
-0.0800719 -0.058509 0
-0.063859 -0.104581 0
-0.138976 -0.40456 0
-0.127251 -0.8715 0
-0.0559056 -0.108367 0
-0.0050884 -0.13094 0
-0.114412 -0.774284 0
-0.0212191 -1.01496 0
-0.322068 -0.391852 0
-0.263685 -0.869056 0
-0.851004 -1.67624 0
-0.749641 -3.40494 0
-0.239116 -0.768352 0
-0.0193577 -1.01766 0
-0.689988 -3.12329 0
-0.0850987 -3.99926 0
0.0154169 -0.130756 0
0.0629505 -0.110038 0
0.0160623 -1.01384 0
0.110424 -0.774695 0
0.0706626 -0.105638 0
0.0807694 -0.0610982 0
0.12445 -0.871314 0
0.13889 -0.403537 0
0.0394705 -1.0164 0
0.252556 -0.772828 0
0.0687731 -3.99614 0
0.677265 -3.12503 0
0.276512 -0.873013 0
0.322469 -0.395541 0
0.7401 -3.4044 0
0.849507 -1.67457 0
-1.09599 -1.82947 0
-0.931585 -3.70864 0
-3.36471 -4.54829 0
-2.91307 -8.90456 0
-0.856415 -3.40671 0
-0.0826201 -4.36166 0
-2.70372 -8.32746 0
-0.260245 -10.5078 0
-3.306 -5.02761 0
-2.86861 -9.76951 0
-8.82127 -7.71396 0
-7.57587 -14.7821 0
-2.66328 -9.15073 0
-0.2601 -11.5221 0
-7.06189 -13.969 0
-0.585242 -17.4793 0
0.0995502 -4.35871 0
0.866631 -3.41634 0
0.243639 -10.5021 0
2.6893 -8.33123 0
0.94264 -3.71674 0
1.09518 -1.83639 0
2.90413 -8.90321 0
3.36184 -4.54643 0
0.235281 -11.5174 0
2.64325 -9.1635 0
0.604442 -17.473 0
7.07126 -13.9747 0
2.85461 -9.77899 0
3.30311 -5.0349 0
7.59093 -14.781 0
8.81925 -7.71343 0
0.0713676 -0.0574719 0
0.0519485 -0.0209047 0
0.121278 -0.484505 0
0.0777279 -0.163976 0
0.0427328 -0.020682 0
0.0208076 -0.00309593 0
0.0610597 -0.171229 0
0.0211172 -0.0648366 0
0.298413 -0.479435 0
0.210194 -0.156407 0
0.785222 -1.90863 0
0.514374 -0.673864 0
0.183767 -0.163701 0
0.0844661 -0.061138 0
0.445519 -0.694687 0
0.174793 -0.240149 0
0.019065 -0.00452015 0
0.00732366 0.000701432 0
0.0185844 -0.0367116 0
0.00205628 -0.0252903 0
0.00854518 -0.000453869 0
0.00530875 0.000117183 0
0.00478698 -0.00397188 0
-0.000464435 -0.0076945 0
0.0771706 -0.0318223 0
0.024149 -0.0242258 0
0.157537 -0.158734 0
0.031076 -0.081648 0
0.0257907 -0.00223712 0
0.0108133 -0.0079544 0
0.0368739 -0.0204494 0
-0.00117132 -0.0235884 0
1.02259 -2.08808 0
0.692854 -0.740547 0
3.16739 -5.02563 0
2.09017 -1.82732 0
0.611148 -0.762844 0
0.260835 -0.26331 0
1.8648 -1.87 0
0.761257 -0.614808 0
3.1119 -5.5508 0
2.04937 -2.04386 0
8.38243 -8.38901 0
5.5466 -3.11064 0
1.8278 -2.09039 0
0.742729 -0.693505 0
5.01489 -3.17152 0
2.08275 -1.0213 0
0.23719 -0.175507 0
0.0613223 -0.0889946 0
0.691917 -0.448044 0
0.161001 -0.189542 0
0.0655891 -0.0229554 0
0.0145412 -0.0255624 0
0.169556 -0.0648241 0
0.0134568 -0.0513611 0
0.674688 -0.51392 0
0.154774 -0.213989 0
1.90142 -0.786443 0
0.475744 -0.298728 0
0.163301 -0.078682 0
0.0103973 -0.0558488 0
0.481539 -0.123038 0
0.0663585 -0.0761383 0
-8.12621 -8.1224 0
-7.05814 -15.4849 0
-15.4852 -7.01937 0
-13.2683 -13.2962 0
-6.58767 -14.6449 0
-0.590283 -18.2956 0
-12.4003 -12.6201 0
-0.956791 -15.7241 0
-14.647 -6.5605 0
-12.644 -12.4484 0
-18.2943 -0.520343 0
-15.7071 -0.9935 0
-11.8281 -11.816 0
-0.961272 -14.7237 0
-14.7034 -0.916131 0
-1.12568 -1.15154 0
0.517938 -18.2905 0
6.53406 -14.6528 0
1.01693 -15.7215 0
12.4387 -12.6283 0
7.01657 -15.4873 0
8.12266 -8.12386 0
13.3109 -13.2999 0
15.4863 -7.02557 0
0.915543 -14.7203 0
11.7935 -11.8116 0
1.1543 -1.15454 0
14.7216 -0.925601 0
12.6211 -12.4377 0
14.6463 -6.55382 0
15.7306 -1.00367 0
18.2967 -0.535776 0
-18.2884 0.55433 0
-15.7013 0.946173 0
-14.6518 6.58383 0
-12.6451 12.4146 0
-14.699 0.931165 0
-1.12247 1.12553 0
-11.8448 11.8254 0
-0.945808 14.7034 0
-15.4838 7.04149 0
-13.265 13.2706 0
-8.12386 8.12282 0
-7.05027 15.4845 0
-12.4153 12.6327 0
-0.940357 15.7133 0
-6.59763 14.6455 0
-0.566362 18.2954 0
1.15446 1.12482 0
14.7194 0.945196 0
0.895918 14.6975 0
11.8098 11.822 0
15.7269 0.963673 0
18.2907 0.563847 0
12.6178 12.4067 0
14.6518 6.57023 0
0.993239 15.7084 0
12.4509 12.6454 0
0.4999 18.2903 0
6.55114 14.6526 0
13.3012 13.2808 0
15.4853 7.04625 0
7.00993 15.4864 0
8.12146 8.12322 0
7.71096 -8.82341 0
5.0423 -3.29966 0
14.7797 -7.58741 0
9.77507 -2.85391 0
4.54746 -3.36356 0
1.84045 -1.09168 0
8.89371 -2.90492 0
3.7108 -0.934622 0
13.969 -7.07721 0
9.16378 -2.64959 0
17.4835 -0.59821 0
11.5233 -0.241585 0
8.32631 -2.69679 0
3.41522 -0.861721 0
10.5063 -0.246349 0
4.36023 -0.0929174 0
1.67647 -0.848769 0
0.390283 -0.320497 0
3.3961 -0.739567 0
0.871945 -0.268563 0
0.399704 -0.13756 0
0.0213864 -0.0793191 0
0.870088 -0.122097 0
0.136751 -0.0650117 0
3.12157 -0.680297 0
0.766975 -0.245932 0
3.99527 -0.0712021 0
1.01762 -0.0306471 0
0.769765 -0.110415 0
0.0809155 -0.0603749 0
1.01395 -0.0141155 0
0.147181 -0.00623472 0
17.4784 0.583027 0
11.5176 0.24664 0
13.9839 7.06334 0
9.16339 2.65088 0
10.502 0.250599 0
4.35692 0.084843 0
8.34308 2.6973 0
3.41494 0.854811 0
14.7897 7.58184 0
9.76963 2.85875 0
7.72115 8.82202 0
5.03426 3.29853 0
8.9077 2.90927 0
3.70813 0.930373 0
4.56014 3.36215 0
1.83569 1.09061 0
3.99252 0.0780975 0
1.01627 0.0247313 0
3.1298 0.683775 0
0.76693 0.241211 0
1.01265 0.017596 0
0.14647 0.00390252 0
0.771319 0.112379 0
0.0802422 0.0586309 0
3.40298 0.74432 0
0.871146 0.265184 0
1.68174 0.847781 0
0.388293 0.319892 0
0.871057 0.124327 0
0.136035 0.0636397 0
0.399409 0.137156 0
0.0191143 0.0792024 0
-0.055501 0.0710966 0
-0.484014 0.12087 0
-0.0189406 0.0548028 0
-0.164492 0.0748155 0
-0.473769 0.298803 0
-1.90706 0.785249 0
-0.15359 0.217158 0
-0.67499 0.507772 0
-0.0185917 0.0459148 0
-0.170604 0.0586394 0
-0.00233237 0.0230528 0
-0.0636275 0.0175665 0
-0.159526 0.191153 0
-0.692733 0.439979 0
-0.0579666 0.0905109 0
-0.237983 0.16738 0
-2.07705 1.02364 0
-5.02318 3.16785 0
-0.736609 0.699192 0
-1.8298 2.0841 0
-5.53849 3.11203 0
-8.3867 8.38251 0
-2.04256 2.03994 0
-3.11483 5.55411 0
-0.755862 0.618484 0
-1.86705 1.86068 0
-0.258912 0.265958 0
-0.613605 0.75435 0
-2.08458 1.82036 0
-3.1701 5.02509 0
-0.692242 0.732564 0
-1.0243 2.08974 0
-0.00313373 0.0211872 0
-0.0358462 0.0153352 0
0.000946567 0.00635244 0
-0.0230558 -0.00123795 0
-0.0291402 0.0830515 0
-0.156731 0.151135 0
-0.0207553 0.0242831 0
-0.0771971 0.0257603 0
0.000395157 0.00746182 0
-0.00407049 0.00171574 0
0.000771418 -0.000596169 0
-0.00584683 -0.0021657 0
-0.00121887 0.0260527 0
-0.0216027 0.0327981 0
-0.00445517 -0.00126873 0
-0.0197494 -0.00601947 0
-0.172069 0.242709 0
-0.446114 0.68706 0
-0.0836181 0.0603464 0
-0.185137 0.154422 0
-0.513642 0.666705 0
-0.787928 1.91124 0
-0.211176 0.147077 0
-0.299323 0.47012 0
-0.0241798 0.0657213 0
-0.0701934 0.166598 0
-0.0215037 -0.00478309 0
-0.0491958 -0.0132317 0
-0.0879787 0.159215 0
-0.13616 0.483256 0
-0.0592805 -0.0131057 0
-0.0838448 -0.0221499 0
-8.81942 7.70806 0
-7.58272 14.7775 0
-3.30437 5.01388 0
-2.85486 9.797 0
-7.08687 13.9634 0
-0.588236 17.4779 0
-2.65689 9.14433 0
-0.23274 11.5322 0
-3.36381 4.52201 0
-2.90411 8.91825 0
-1.09685 1.8129 0
-0.940185 3.73314 0
-2.70178 8.30984 0
-0.2409 10.5167 0
-0.869075 3.39791 0
-0.0933336 4.37074 0
0.566306 17.4731 0
7.07143 13.9774 0
0.24342 11.5279 0
2.66422 9.14293 0
7.5706 14.7866 0
8.81912 7.7174 0
2.86138 9.78953 0
3.304 5.00895 0
0.245991 10.5138 0
2.70514 8.32253 0
0.0821646 4.36877 0
0.861155 3.39641 0
2.90718 8.92709 0
3.36326 4.53381 0
0.932789 3.72796 0
1.09581 1.81099 0
-0.85353 1.6534 0
-0.743757 3.42166 0
-0.324085 0.373486 0
-0.274743 0.865394 0
-0.684325 3.1094 0
-0.0707688 4.00964 0
-0.251832 0.748223 0
-0.0347461 1.00398 0
-0.155355 0.390474 0
-0.138058 0.874774 0
-0.0944538 -0.0244199 0
-0.0813196 -0.0300852 0
-0.123575 0.762456 0
-0.0181964 1.01371 0
-0.072989 -0.0328621 0
-0.0131728 -0.0347304 0
0.0802235 4.00816 0
0.690647 3.11544 0
0.0232992 1.00334 0
0.243706 0.747796 0
0.749064 3.42514 0
0.852805 1.66005 0
0.267265 0.863226 0
0.323221 0.373776 0
0.021611 1.01305 0
0.125751 0.7645 0
0.00958597 -0.0349694 0
0.0703834 -0.0328027 0
0.139769 0.875319 0
0.154774 0.393408 0
0.0789584 -0.0310647 0
0.0941033 -0.0234879 0
0.000754743 0.000718487 0
-0.00584539 0.000813051 0
8.24122e-05 -0.00702434 0
-0.00451777 -0.00301953 0
-0.00446744 0.00170781 0
-0.0197309 0.00313097 0
-0.00199058 -0.0250614 0
-0.022465 -0.0358505 0
0.000515855 -0.0059314 0
-0.023228 -0.000202117 0
-0.00374029 -0.0199073 0
-0.0369351 -0.0163628 0
-0.0212616 -0.0233227 0
-0.0774167 -0.0291965 0
-0.0310939 -0.08061 0
-0.159312 -0.154449 0
-0.0214827 0.00429332 0
-0.0491021 0.00974313 0
-0.025001 -0.0656566 0
-0.0709026 -0.170354 0
-0.0591407 0.00954304 0
-0.0836613 0.0217538 0
-0.0876263 -0.162927 0
-0.135458 -0.483435 0
-0.0837633 -0.0605241 0
-0.18479 -0.158945 0
-0.174633 -0.241135 0
-0.449175 -0.691774 0
-0.209679 -0.151531 0
-0.297592 -0.471344 0
-0.514062 -0.670751 0
-0.788015 -1.91217 0
-0.00319371 -0.0217739 0
-0.0637238 -0.0187471 0
-0.0194415 -0.0439197 0
-0.172245 -0.0587379 0
-0.058877 -0.0880991 0
-0.238262 -0.171234 0
-0.162778 -0.187578 0
-0.697724 -0.442373 0
-0.0196177 -0.0525358 0
-0.165178 -0.0744516 0
-0.0568229 -0.0698289 0
-0.484695 -0.119503 0
-0.155788 -0.213217 0
-0.67749 -0.509348 0
-0.476592 -0.296623 0
-1.91182 -0.784543 0
-0.259055 -0.264725 0
-0.613124 -0.760306 0
-0.761061 -0.615195 0
-1.87475 -1.86587 0
-0.689044 -0.737743 0
-1.02121 -2.09265 0
-2.08783 -1.82321 0
-3.17427 -5.02936 0
-0.739154 -0.695103 0
-1.83313 -2.08814 0
-2.08252 -1.02024 0
-5.03341 -3.1708 0
-2.04135 -2.04145 0
-3.11393 -5.55742 0