# vtk DataFile Version 3.0
#This file was generated by the deal.II library on 2020/8/22 at 21:54:41
ASCII
DATASET UNSTRUCTURED_GRID

POINTS 65536 double
-1 -1 0
-1 -0.989583 0
-1 -0.979167 0
-1 -0.96875 0
-0.96875 -1 0
-0.96875 -0.989583 0
-0.96875 -0.979167 0
-0.96875 -0.96875 0
-1 -1 0
-0.989583 -1 0
-0.979167 -1 0
-0.96875 -1 0
-1 -0.96875 0
-0.989583 -0.96875 0
-0.979167 -0.96875 0
-0.96875 -0.96875 0
-0.96875 -1 0
-0.96875 -0.989583 0
-0.96875 -0.979167 0
-0.96875 -0.96875 0
-0.9375 -1 0
-0.9375 -0.989583 0
-0.9375 -0.979167 0
-0.9375 -0.96875 0
-0.96875 -1 0
-0.958333 -1 0
-0.947917 -1 0
-0.9375 -1 0
-0.96875 -0.96875 0
-0.958333 -0.96875 0
-0.947917 -0.96875 0
-0.9375 -0.96875 0
-1 -0.96875 0
-1 -0.958333 0
-1 -0.947917 0
-1 -0.9375 0
-0.96875 -0.96875 0
-0.96875 -0.958333 0
-0.96875 -0.947917 0
-0.96875 -0.9375 0
-1 -0.96875 0
-0.989583 -0.96875 0
-0.979167 -0.96875 0
-0.96875 -0.96875 0
-1 -0.9375 0
-0.989583 -0.9375 0
-0.979167 -0.9375 0
-0.96875 -0.9375 0
-0.96875 -0.96875 0
-0.96875 -0.958333 0
-0.96875 -0.947917 0
-0.96875 -0.9375 0
-0.9375 -0.96875 0
-0.9375 -0.958333 0
-0.9375 -0.947917 0
-0.9375 -0.9375 0
-0.96875 -0.96875 0
-0.958333 -0.96875 0
-0.947917 -0.96875 0
-0.9375 -0.96875 0
-0.96875 -0.9375 0
-0.958333 -0.9375 0
-0.947917 -0.9375 0
-0.9375 -0.9375 0
-0.9375 -1 0
-0.9375 -0.989583 0
-0.9375 -0.979167 0
-0.9375 -0.96875 0
-0.90625 -1 0
-0.90625 -0.989583 0
-0.90625 -0.979167 0
-0.90625 -0.96875 0
-0.9375 -1 0
-0.927083 -1 0
-0.916667 -1 0
-0.90625 -1 0
-0.9375 -0.96875 0
-0.927083 -0.96875 0
-0.916667 -0.96875 0
-0.90625 -0.96875 0
-0.90625 -1 0
-0.90625 -0.989583 0
-0.90625 -0.979167 0
-0.90625 -0.96875 0
-0.875 -1 0
-0.875 -0.989583 0
-0.875 -0.979167 0
-0.875 -0.96875 0
-0.90625 -1 0
-0.895833 -1 0
-0.885417 -1 0
-0.875 -1 0
-0.90625 -0.96875 0
-0.895833 -0.96875 0
-0.885417 -0.96875 0
-0.875 -0.96875 0
-0.9375 -0.96875 0
-0.9375 -0.958333 0
-0.9375 -0.947917 0
-0.9375 -0.9375 0
-0.90625 -0.96875 0
-0.90625 -0.958333 0
-0.90625 -0.947917 0
-0.90625 -0.9375 0
-0.9375 -0.96875 0
-0.927083 -0.96875 0
-0.916667 -0.96875 0
-0.90625 -0.96875 0
-0.9375 -0.9375 0
-0.927083 -0.9375 0
-0.916667 -0.9375 0
-0.90625 -0.9375 0
-0.90625 -0.96875 0
-0.90625 -0.958333 0
-0.90625 -0.947917 0
-0.90625 -0.9375 0
-0.875 -0.96875 0
-0.875 -0.958333 0
-0.875 -0.947917 0
-0.875 -0.9375 0
-0.90625 -0.96875 0
-0.895833 -0.96875 0
-0.885417 -0.96875 0
-0.875 -0.96875 0
-0.90625 -0.9375 0
-0.895833 -0.9375 0
-0.885417 -0.9375 0
-0.875 -0.9375 0
-1 -0.9375 0
-1 -0.927083 0
-1 -0.916667 0
-1 -0.90625 0
-0.96875 -0.9375 0
-0.96875 -0.927083 0
-0.96875 -0.916667 0
-0.96875 -0.90625 0
-1 -0.9375 0
-0.989583 -0.9375 0
-0.979167 -0.9375 0
-0.96875 -0.9375 0
-1 -0.90625 0
-0.989583 -0.90625 0
-0.979167 -0.90625 0
-0.96875 -0.90625 0
-0.96875 -0.9375 0
-0.96875 -0.927083 0
-0.96875 -0.916667 0
-0.96875 -0.90625 0
-0.9375 -0.9375 0
-0.9375 -0.927083 0
-0.9375 -0.916667 0
-0.9375 -0.90625 0
-0.96875 -0.9375 0
-0.958333 -0.9375 0
-0.947917 -0.9375 0
-0.9375 -0.9375 0
-0.96875 -0.90625 0
-0.958333 -0.90625 0
-0.947917 -0.90625 0
-0.9375 -0.90625 0
-1 -0.90625 0
-1 -0.895833 0
-1 -0.885417 0
-1 -0.875 0
-0.96875 -0.90625 0
-0.96875 -0.895833 0
-0.96875 -0.885417 0
-0.96875 -0.875 0
-1 -0.90625 0
-0.989583 -0.90625 0
-0.979167 -0.90625 0
-0.96875 -0.90625 0
-1 -0.875 0
-0.989583 -0.875 0
-0.979167 -0.875 0
-0.96875 -0.875 0
-0.96875 -0.90625 0
-0.96875 -0.895833 0
-0.96875 -0.885417 0
-0.96875 -0.875 0
-0.9375 -0.90625 0
-0.9375 -0.895833 0
-0.9375 -0.885417 0
-0.9375 -0.875 0
-0.96875 -0.90625 0
-0.958333 -0.90625 0
-0.947917 -0.90625 0
-0.9375 -0.90625 0
-0.96875 -0.875 0
-0.958333 -0.875 0
-0.947917 -0.875 0
-0.9375 -0.875 0
-0.9375 -0.9375 0
-0.9375 -0.927083 0
-0.9375 -0.916667 0
-0.9375 -0.90625 0
-0.90625 -0.9375 0
-0.90625 -0.927083 0
-0.90625 -0.916667 0
-0.90625 -0.90625 0
-0.9375 -0.9375 0
-0.927083 -0.9375 0
-0.916667 -0.9375 0
-0.90625 -0.9375 0
-0.9375 -0.90625 0
-0.927083 -0.90625 0
-0.916667 -0.90625 0
-0.90625 -0.90625 0
-0.90625 -0.9375 0
-0.90625 -0.927083 0
-0.90625 -0.916667 0
-0.90625 -0.90625 0
-0.875 -0.9375 0
-0.875 -0.927083 0
-0.875 -0.916667 0
-0.875 -0.90625 0
-0.90625 -0.9375 0
-0.895833 -0.9375 0
-0.885417 -0.9375 0
-0.875 -0.9375 0
-0.90625 -0.90625 0
-0.895833 -0.90625 0
-0.885417 -0.90625 0
-0.875 -0.90625 0
-0.9375 -0.90625 0
-0.9375 -0.895833 0
-0.9375 -0.885417 0
-0.9375 -0.875 0
-0.90625 -0.90625 0
-0.90625 -0.895833 0
-0.90625 -0.885417 0
-0.90625 -0.875 0
-0.9375 -0.90625 0
-0.927083 -0.90625 0
-0.916667 -0.90625 0
-0.90625 -0.90625 0
-0.9375 -0.875 0
-0.927083 -0.875 0
-0.916667 -0.875 0
-0.90625 -0.875 0
-0.90625 -0.90625 0
-0.90625 -0.895833 0
-0.90625 -0.885417 0
-0.90625 -0.875 0
-0.875 -0.90625 0
-0.875 -0.895833 0
-0.875 -0.885417 0
-0.875 -0.875 0
-0.90625 -0.90625 0
-0.895833 -0.90625 0
-0.885417 -0.90625 0
-0.875 -0.90625 0
-0.90625 -0.875 0
-0.895833 -0.875 0
-0.885417 -0.875 0
-0.875 -0.875 0
-0.875 -1 0
-0.875 -0.989583 0
-0.875 -0.979167 0
-0.875 -0.96875 0
-0.84375 -1 0
-0.84375 -0.989583 0
-0.84375 -0.979167 0
-0.84375 -0.96875 0
-0.875 -1 0
-0.864583 -1 0
-0.854167 -1 0
-0.84375 -1 0
-0.875 -0.96875 0
-0.864583 -0.96875 0
-0.854167 -0.96875 0
-0.84375 -0.96875 0
-0.84375 -1 0
-0.84375 -0.989583 0
-0.84375 -0.979167 0
-0.84375 -0.96875 0
-0.8125 -1 0
-0.8125 -0.989583 0
-0.8125 -0.979167 0
-0.8125 -0.96875 0
-0.84375 -1 0
-0.833333 -1 0
-0.822917 -1 0
-0.8125 -1 0
-0.84375 -0.96875 0
-0.833333 -0.96875 0
-0.822917 -0.96875 0
-0.8125 -0.96875 0
-0.875 -0.96875 0
-0.875 -0.958333 0
-0.875 -0.947917 0
-0.875 -0.9375 0
-0.84375 -0.96875 0
-0.84375 -0.958333 0
-0.84375 -0.947917 0
-0.84375 -0.9375 0
-0.875 -0.96875 0
-0.864583 -0.96875 0
-0.854167 -0.96875 0
-0.84375 -0.96875 0
-0.875 -0.9375 0
-0.864583 -0.9375 0
-0.854167 -0.9375 0
-0.84375 -0.9375 0
-0.84375 -0.96875 0
-0.84375 -0.958333 0
-0.84375 -0.947917 0
-0.84375 -0.9375 0
-0.8125 -0.96875 0
-0.8125 -0.958333 0
-0.8125 -0.947917 0
-0.8125 -0.9375 0
-0.84375 -0.96875 0
-0.833333 -0.96875 0
-0.822917 -0.96875 0
-0.8125 -0.96875 0
-0.84375 -0.9375 0
-0.833333 -0.9375 0
-0.822917 -0.9375 0
-0.8125 -0.9375 0
-0.8125 -1 0
-0.8125 -0.989583 0
-0.8125 -0.979167 0
-0.8125 -0.96875 0
-0.78125 -1 0
-0.78125 -0.989583 0
-0.78125 -0.979167 0
-0.78125 -0.96875 0
-0.8125 -1 0
-0.802083 -1 0
-0.791667 -1 0
-0.78125 -1 0
-0.8125 -0.96875 0
-0.802083 -0.96875 0
-0.791667 -0.96875 0
-0.78125 -0.96875 0
-0.78125 -1 0
-0.78125 -0.989583 0
-0.78125 -0.979167 0
-0.78125 -0.96875 0
-0.75 -1 0
-0.75 -0.989583 0
-0.75 -0.979167 0
-0.75 -0.96875 0
-0.78125 -1 0
-0.770833 -1 0
-0.760417 -1 0
-0.75 -1 0
-0.78125 -0.96875 0
-0.770833 -0.96875 0
-0.760417 -0.96875 0
-0.75 -0.96875 0
-0.8125 -0.96875 0
-0.8125 -0.958333 0
-0.8125 -0.947917 0
-0.8125 -0.9375 0
-0.78125 -0.96875 0
-0.78125 -0.958333 0
-0.78125 -0.947917 0
-0.78125 -0.9375 0
-0.8125 -0.96875 0
-0.802083 -0.96875 0
-0.791667 -0.96875 0
-0.78125 -0.96875 0
-0.8125 -0.9375 0
-0.802083 -0.9375 0
-0.791667 -0.9375 0
-0.78125 -0.9375 0
-0.78125 -0.96875 0
-0.78125 -0.958333 0
-0.78125 -0.947917 0
-0.78125 -0.9375 0
-0.75 -0.96875 0
-0.75 -0.958333 0
-0.75 -0.947917 0
-0.75 -0.9375 0
-0.78125 -0.96875 0
-0.770833 -0.96875 0
-0.760417 -0.96875 0
-0.75 -0.96875 0
-0.78125 -0.9375 0
-0.770833 -0.9375 0
-0.760417 -0.9375 0
-0.75 -0.9375 0
-0.875 -0.9375 0
-0.875 -0.927083 0
-0.875 -0.916667 0
-0.875 -0.90625 0
-0.84375 -0.9375 0
-0.84375 -0.927083 0
-0.84375 -0.916667 0
-0.84375 -0.90625 0
-0.875 -0.9375 0
-0.864583 -0.9375 0
-0.854167 -0.9375 0
-0.84375 -0.9375 0
-0.875 -0.90625 0
-0.864583 -0.90625 0
-0.854167 -0.90625 0
-0.84375 -0.90625 0
-0.84375 -0.9375 0
-0.84375 -0.927083 0
-0.84375 -0.916667 0
-0.84375 -0.90625 0
-0.8125 -0.9375 0
-0.8125 -0.927083 0
-0.8125 -0.916667 0
-0.8125 -0.90625 0
-0.84375 -0.9375 0
-0.833333 -0.9375 0
-0.822917 -0.9375 0
-0.8125 -0.9375 0
-0.84375 -0.90625 0
-0.833333 -0.90625 0
-0.822917 -0.90625 0
-0.8125 -0.90625 0
-0.875 -0.90625 0
-0.875 -0.895833 0
-0.875 -0.885417 0
-0.875 -0.875 0
-0.84375 -0.90625 0
-0.84375 -0.895833 0
-0.84375 -0.885417 0
-0.84375 -0.875 0
-0.875 -0.90625 0
-0.864583 -0.90625 0
-0.854167 -0.90625 0
-0.84375 -0.90625 0
-0.875 -0.875 0
-0.864583 -0.875 0
-0.854167 -0.875 0
-0.84375 -0.875 0
-0.84375 -0.90625 0
-0.84375 -0.895833 0
-0.84375 -0.885417 0
-0.84375 -0.875 0
-0.8125 -0.90625 0
-0.8125 -0.895833 0
-0.8125 -0.885417 0
-0.8125 -0.875 0
-0.84375 -0.90625 0
-0.833333 -0.90625 0
-0.822917 -0.90625 0
-0.8125 -0.90625 0
-0.84375 -0.875 0
-0.833333 -0.875 0
-0.822917 -0.875 0
-0.8125 -0.875 0
-0.8125 -0.9375 0
-0.8125 -0.927083 0
-0.8125 -0.916667 0
-0.8125 -0.90625 0
-0.78125 -0.9375 0
-0.78125 -0.927083 0
-0.78125 -0.916667 0
-0.78125 -0.90625 0
-0.8125 -0.9375 0
-0.802083 -0.9375 0
-0.791667 -0.9375 0
-0.78125 -0.9375 0
-0.8125 -0.90625 0
-0.802083 -0.90625 0
-0.791667 -0.90625 0
-0.78125 -0.90625 0
-0.78125 -0.9375 0
-0.78125 -0.927083 0
-0.78125 -0.916667 0
-0.78125 -0.90625 0
-0.75 -0.9375 0
-0.75 -0.927083 0
-0.75 -0.916667 0
-0.75 -0.90625 0
-0.78125 -0.9375 0
-0.770833 -0.9375 0
-0.760417 -0.9375 0
-0.75 -0.9375 0
-0.78125 -0.90625 0
-0.770833 -0.90625 0
-0.760417 -0.90625 0
-0.75 -0.90625 0
-0.8125 -0.90625 0
-0.8125 -0.895833 0
-0.8125 -0.885417 0
-0.8125 -0.875 0
-0.78125 -0.90625 0
-0.78125 -0.895833 0
-0.78125 -0.885417 0
-0.78125 -0.875 0
-0.8125 -0.90625 0
-0.802083 -0.90625 0
-0.791667 -0.90625 0
-0.78125 -0.90625 0
-0.8125 -0.875 0
-0.802083 -0.875 0
-0.791667 -0.875 0
-0.78125 -0.875 0
-0.78125 -0.90625 0
-0.78125 -0.895833 0
-0.78125 -0.885417 0
-0.78125 -0.875 0
-0.75 -0.90625 0
-0.75 -0.895833 0
-0.75 -0.885417 0
-0.75 -0.875 0
-0.78125 -0.90625 0
-0.770833 -0.90625 0
-0.760417 -0.90625 0
-0.75 -0.90625 0
-0.78125 -0.875 0
-0.770833 -0.875 0
-0.760417 -0.875 0
-0.75 -0.875 0
-1 -0.875 0
-1 -0.864583 0
-1 -0.854167 0
-1 -0.84375 0
-0.96875 -0.875 0
-0.96875 -0.864583 0
-0.96875 -0.854167 0
-0.96875 -0.84375 0
-1 -0.875 0
-0.989583 -0.875 0
-0.979167 -0.875 0
-0.96875 -0.875 0
-1 -0.84375 0
-0.989583 -0.84375 0
[...]
POINT_DATA 65536
SCALARS u_hat double 1
LOOKUP_TABLE default
1.48337e-05 1.9183e-05 2.46953e-05 3.15953e-05 3.16131e-05 4.08915e-05 5.26367e-05 6.73519e-05 1.48333e-05 1.91831e-05 2.46952e-05 3.15958e-05 3.16129e-05 4.08916e-05 5.26366e-05 6.73521e-05 3.16131e-05 4.08915e-05 5.26367e-05 6.73519e-05 6.41716e-05 8.30083e-05 0.000106849 0.000136722 3.16103e-05 4.0233e-05 5.09493e-05 6.41475e-05 6.73736e-05 8.57598e-05 0.000108598 0.000136737 3.16107e-05 4.02329e-05 5.09494e-05 6.41471e-05 6.73738e-05 8.57597e-05 0.000108598 0.000136736 3.16129e-05 4.08916e-05 5.26366e-05 6.73521e-05 6.41712e-05 8.30085e-05 0.000106849 0.000136723 6.73738e-05 8.57597e-05 0.000108598 0.000136736 0.000136764 0.000174088 0.000220447 0.000277569 6.73736e-05 8.57598e-05 0.000108598 0.000136737 0.000136764 0.000174088 0.000220447 0.000277569 6.41716e-05 8.30083e-05 0.000106849 0.000136722 0.000124056 0.000160473 0.000206561 0.000264314 6.41585e-05 8.03571e-05 0.000100108 0.000124023 0.000136753 0.000171284 0.000213381 0.000264361 0.000124056 0.000160473 0.000206561 0.000264314 0.000228396 0.000295444 0.000380295 0.000486624 0.000124023 0.000152844 0.000187326 0.000228352 0.00026436 0.000325789 0.00039929 0.000486734 0.000136764 0.000174088 0.000220447 0.000277569 0.000264392 0.000336549 0.00042617 0.000536599 0.000136753 0.000171284 0.000213381 0.000264361 0.0002776 0.000347698 0.00043315 0.000536639 0.000264392 0.000336549 0.00042617 0.000536599 0.000486765 0.000619614 0.000784611 0.000987923 0.00026436 0.000325789 0.00039929 0.000486734 0.000536638 0.000661334 0.000810536 0.000988041 6.41586e-05 8.0357e-05 0.000100108 0.000124023 0.000136753 0.000171284 0.000213381 0.000264361 6.41712e-05 8.30085e-05 0.000106849 0.000136723 0.000124055 0.000160473 0.000206561 0.000264314 0.000136753 0.000171284 0.000213381 0.000264361 0.0002776 0.000347698 0.00043315 0.000536638 0.000136764 0.000174088 0.000220447 0.000277569 0.000264391 0.000336549 0.000426169 0.0005366 0.000124023 0.000152844 0.000187325 0.000228352 0.00026436 0.00032579 0.00039929 0.000486734 0.000124055 0.000160473 0.000206561 0.000264314 0.000228395 0.000295444 0.000380295 0.000486625 0.00026436 0.00032579 0.00039929 0.000486734 0.000536637 0.000661334 0.000810536 0.000988042 0.000264391 0.000336549 0.000426169 0.0005366 0.000486764 0.000619615 0.000784611 0.000987924 0.0002776 0.000347698 0.00043315 0.000536638 0.000536658 0.000672172 0.000837369 0.00103743 0.0002776 0.000347698 0.00043315 0.000536639 0.000536658 0.000672172 0.000837369 0.00103743 0.000536658 0.000672172 0.000837369 0.00103743 0.00098803 0.00123752 0.00154166 0.00191 0.000536638 0.000661334 0.000810536 0.000988041 0.00103743 0.00127849 0.00156693 0.00191009 0.000536637 0.000661334 0.000810536 0.000988042 0.00103743 0.0012785 0.00156693 0.00191009 0.000536658 0.000672172 0.000837369 0.00103743 0.000988029 0.00123752 0.00154166 0.00191 0.00103743 0.0012785 0.00156693 0.00191009 0.00190999 0.00235381 0.00288485 0.00351662 0.00103743 0.00127849 0.00156693 0.00191009 0.00191 0.00235381 0.00288485 0.00351662 0.000228396 0.000295444 0.000380295 0.000486624 0.000400453 0.000518016 0.000666786 0.000853221 0.00022833 0.000276859 0.000333831 0.000400393 0.000486702 0.000590127 0.000711573 0.000853435 0.000400453 0.000518016 0.000666786 0.000853221 0.000668668 0.000864976 0.00111339 0.0014247 0.000400342 0.000477594 0.000566572 0.00066858 0.00085336 0.00101799 0.00120767 0.00142507 0.000486765 0.000619614 0.000784611 0.000987923 0.000853463 0.0010864 0.00137569 0.00173217 0.000486702 0.000590127 0.000711573 0.000853435 0.000987981 0.00119792 0.00144446 0.00173242 0.000853463 0.0010864 0.00137569 0.00173217 0.0014251 0.00181405 0.00229711 0.00289235 0.00085336 0.00101799 0.00120767 0.00142507 0.00173228 0.00206647 0.0024515 0.00289281 0.000668668 0.000864976 0.00111339 0.0014247 0.00106332 0.0013755 0.00177052 0.00226558 0.000668498 0.000784602 0.000915756 0.00106318 0.00142495 0.00167238 0.00195197 0.00226617 0.00106332 0.0013755 0.00177052 0.00226558 0.00161032 0.0020831 0.00268133 0.00343106 0.00106308 0.00122753 0.00140961 0.0016101 0.00226601 0.0026165 0.00300464 0.00343193 0.0014251 0.00181405 0.00229711 0.00289235 0.0022662 0.00288473 0.00365289 0.00459946 0.00142495 0.00167238 0.00195197 0.00226617 0.00289258 0.00339484 0.00396239 0.00460018 0.0022662 0.00288473 0.00365289 0.00459946 0.003432 0.00436872 0.00553204 0.00696557 0.00226601 0.0026165 0.00300464 0.00343193 0.00459989 0.00531133 0.00609925 0.00696661 0.00098803 0.00123752 0.00154166 0.00191 0.00173235 0.0021698 0.00270306 0.00334888 0.000987981 0.00119792 0.00144446 0.00173242 0.00190997 0.00231583 0.00279243 0.00334912 0.00173235 0.0021698 0.00270306 0.00334888 0.00289266 0.0036231 0.00451353 0.00559191 0.00173228 0.00206647 0.0024515 0.00289281 0.00334886 0.0039949 0.00473926 0.00559239 0.00190999 0.00235381 0.00288485 0.00351662 0.00334887 0.00412703 0.00505813 0.00616584 0.00190997 0.00231583 0.00279243 0.00334912 0.00351642 0.00426363 0.00514109 0.006166 0.00334887 0.00412703 0.00505813 0.00616584 0.0055919 0.00689126 0.00844599 0.0102956 0.00334886 0.0039949 0.00473926 0.00559239 0.00616552 0.00735493 0.00872536 0.010296 0.00289266 0.0036231 0.00451353 0.00559191 0.00459993 0.0057615 0.00717747 0.00889233 0.00289258 0.00339484 0.00396239 0.00460018 0.00559195 0.00656292 0.00766011 0.00889309 0.00459993 0.0057615 0.00717747 0.00889233 0.00696627 0.00872538 0.0108698 0.0134668 0.00459989 0.00531133 0.00609925 0.00696661 0.00889254 0.0102679 0.0117911 0.0134679 0.0055919 0.00689126 0.00844599 0.0102956 0.00889231 0.0109586 0.0134309 0.0163722 0.00559195 0.00656292 0.00766011 0.00889309 0.0102952 0.0120829 0.0141029 0.0163729 0.00889231 0.0109586 0.0134309 0.0163722 0.0134668 0.016596 0.0203402 0.0247946 0.00889254 0.0102679 0.0117911 0.0134679 0.0163719 0.018904 0.0217084 0.0247954 0.000228329 0.00027686 0.000333831 0.000400394 0.000486702 0.000590127 0.000711573 0.000853435 0.000228395 0.000295444 0.000380295 0.000486625 0.000400452 0.000518016 0.000666786 0.000853222 0.000486702 0.000590127 0.000711573 0.000853435 0.000987981 0.00119792 0.00144445 0.00173242 0.000486764 0.000619615 0.000784611 0.000987924 0.000853462 0.0010864 0.00137569 0.00173217 0.000400341 0.000477595 0.000566571 0.000668581 0.000853359 0.00101799 0.00120767 0.00142507 0.000400452 0.000518016 0.000666786 0.000853222 0.000668666 0.000864977 0.00111339 0.0014247 0.000853359 0.00101799 0.00120767 0.00142507 0.00173228 0.00206647 0.0024515 0.00289281 0.000853462 0.0010864 0.00137569 0.00173217 0.0014251 0.00181405 0.00229711 0.00289236 0.000987981 0.00119792 0.00144445 0.00173242 0.00190997 0.00231583 0.00279243 0.00334913 0.000988029 0.00123752 0.00154166 0.00191 0.00173235 0.0021698 0.00270306 0.00334888 0.00190997 0.00231583 0.00279243 0.00334913 0.00351641 0.00426363 0.00514108 0.006166 0.00191 0.00235381 0.00288485 0.00351662 0.00334888 0.00412703 0.00505813 0.00616583 0.00173228 0.00206647 0.0024515 0.00289281 0.00334885 0.0039949 0.00473926 0.00559239 0.00173235 0.0021698 0.00270306 0.00334888 0.00289266 0.0036231 0.00451353 0.00559191 0.00334885 0.0039949 0.00473926 0.00559239 0.00616551 0.00735493 0.00872536 0.010296 0.00334888 0.00412703 0.00505813 0.00616583 0.00559191 0.00689126 0.00844599 0.0102956 0.000668496 0.000784603 0.000915755 0.00106319 0.00142495 0.00167238 0.00195197 0.00226617 0.000668666 0.000864977 0.00111339 0.0014247 0.00106332 0.0013755 0.00177052 0.00226558 0.00142495 0.00167238 0.00195197 0.00226617 0.00289257 0.00339484 0.00396239 0.00460018 0.0014251 0.00181405 0.00229711 0.00289236 0.0022662 0.00288473 0.00365288 0.00459946 0.00106308 0.00122753 0.00140961 0.0016101 0.00226601 0.0026165 0.00300464 0.00343193 0.00106332 0.0013755 0.00177052 0.00226558 0.00161031 0.0020831 0.00268133 0.00343107 0.00226601 0.0026165 0.00300464 0.00343193 0.00459989 0.00531133 0.00609925 0.00696661 0.0022662 0.00288473 0.00365288 0.00459946 0.003432 0.00436872 0.00553204 0.00696557 0.00289257 0.00339484 0.00396239 0.00460018 0.00559195 0.00656292 0.00766011 0.00889309 0.00289266 0.0036231 0.00451353 0.00559191 0.00459993 0.0057615 0.00717747 0.00889233 0.00559195 0.00656292 0.00766011 0.00889309 0.0102952 0.0120829 0.0141029 0.0163729 0.00559191 0.00689126 0.00844599 0.0102956 0.00889232 0.0109586 0.0134309 0.0163722 0.00459989 0.00531133 0.00609925 0.00696661 0.00889254 0.0102679 0.0117911 0.0134679 0.00459993 0.0057615 0.00717747 0.00889233 0.00696627 0.00872538 0.0108698 0.0134668 0.00889254 0.0102679 0.0117911 0.0134679 0.0163719 0.018904 0.0217084 0.0247954 0.00889232 0.0109586 0.0134309 0.0163722 0.0134668 0.016596 0.0203402 0.0247946 0.00351641 0.00426363 0.00514108 0.006166 0.00616548 0.0074756 0.00901408 0.0108111 0.00351642 0.00426363 0.00514109 0.006166 0.00616548 0.00747559 0.00901408 0.0108111 0.00616548 0.0074756 0.00901408 0.0108111 0.010295 0.0124826 0.0150516 0.0180522 0.00616552 0.00735493 0.00872536 0.010296 0.0108103 0.0128957 0.0152985 0.0180524 0.00616551 0.00735493 0.00872536 0.010296 0.0108103 0.0128957 0.0152985 0.0180524 0.00616548 0.00747559 0.00901408 0.0108111 0.010295 0.0124826 0.0150516 0.0180522 0.0108103 0.0128957 0.0152985 0.0180524 0.0180508 0.021533 0.0255453 0.0301437 0.0108103 0.0128957 0.0152985 0.0180524 0.0180508 0.021533 0.0255453 0.0301437 0.010295 0.0124826 0.0150516 0.0180522 0.0163713 0.01985 0.0239352 0.0287068 0.0102952 0.0120829 0.0141029 0.0163729 0.0180511 0.0211854 0.0247272 0.0287072 0.0163713 0.01985 0.0239352 0.0287068 0.0247932 0.0300615 0.0362482 0.0434745 0.0163719 0.018904 0.0217084 0.0247954 0.0287055 0.0331452 0.0380622 0.0434748 0.0180508 0.021533 0.0255453 0.0301437 0.0287047 0.0342421 0.0406224 0.0479348 0.0180511 0.0211854 0.0247272 0.0287072 0.0301415 0.035375 0.0412891 0.0479349 0.0287047 0.0342421 0.0406224 0.0479348 0.0434712 0.0518572 0.0615198 0.0725939 0.0287055 0.0331452 0.0380622 0.0434748 0.0479321 0.0553453 0.0635557 0.0725936 0.0102952 0.0120829 0.0141029 0.0163729 0.0180511 0.0211854 0.0247272 0.0287072 0.010295 0.0124826 0.0150516 0.0180522 0.0163713 0.01985 0.0239352 0.0287068 0.0180511 0.0211854 0.0247272 0.0287072 0.0301414 0.035375 0.0412891 0.0479349 0.0180508 0.021533 0.0255453 0.0301437 0.0287047 0.0342421 0.0406224 0.0479348 0.0163719 0.018904 0.0217084 0.0247954 0.0287055 0.0331452 0.0380622 0.0434748 0.0163713 0.01985 0.0239352 0.0287068 0.0247932 0.0300615 0.0362482 0.0434745 0.0287055 0.0331452 0.0380622 0.0434748 0.0479321 0.0553453 0.0635557 0.0725936 0.0287047 0.0342421 0.0406224 0.0479348 0.0434712 0.0518572 0.0615198 0.0725939 0.0301414 0.035375 0.0412891 0.0479349 0.0479313 0.0562537 0.0656584 0.0762266 0.0301415 0.035375 0.0412891 0.0479349 0.0479313 0.0562537 0.0656584 0.0762266 0.0479313 0.0562537 0.0656584 0.0762266 0.0725886 0.0851923 0.099435 0.11544 0.0479321 0.0553453 0.0635557 0.0725936 0.0762222 0.0880108 0.101067 0.115439 0.0479321 0.0553453 0.0635557 0.0725936 0.0762222 0.0880108 0.101067 0.115439 0.0479313 0.0562537 0.0656584 0.0762266 0.0725887 0.0851923 0.099435 0.11544 0.0762222 0.0880108 0.101067 0.115439 0.115433 0.133286 0.153059 0.174824 0.0762222 0.0880108 0.101067 0.115439 0.115433 0.133286 0.153059 0.174824 0.00161032 0.0020831 0.00268133 0.00343106 0.00232249 0.00300437 0.00386717 0.00494849 0.00161 0.00182898 0.00206641 0.00232215 0.00343178 0.0038985 0.0044046 0.00494968 0.00232249 0.00300437 0.00386717 0.00494849 0.00319 0.00412659 0.00531167 0.0067969 0.00232209 0.00259526 0.00288486 0.00318948 0.00494959 0.00553185 0.00614915 0.00679844 0.003432 0.00436872 0.00553204 0.00696557 0.00494983 0.00630083 0.00797863 0.0100462 0.00343178 0.0038985 0.0044046 0.00494968 0.00696633 0.00791374 0.00894109 0.0100476 0.00494983 0.00630083 0.00797863 0.0100462 0.00679873 0.00865437 0.0109589 0.0137987 0.00494959 0.00553185 0.00614915 0.00679844 0.0100474 0.0112293 0.0124824 0.0138004 0.00319 0.00412659 0.00531167 0.0067969 0.00417275 0.00539788 0.00694804 0.00889084 0.0031895 0.00350709 0.00383555 0.00417202 0.00679846 0.00747545 0.00817555 0.00889276 0.00417275 0.00539788 0.00694804 0.00889084 0.00519813 0.00672434 0.00865542 0.0110757 0.00417213 0.00451345 0.00485651 0.00519717 0.00889292 0.00962054 0.0103517 0.0110779 0.00679873 0.00865437 0.0109589 0.0137987 0.00889322 0.0113205 0.014335 0.0180497 0.00679846 0.00747545 0.00817555 0.00889276 0.0138005 0.0151747 0.0165959 0.0180518 0.00889322 0.0113205 0.014335 0.0180497 0.0110786 0.0141024 0.0178576 0.0224852 0.00889292 0.00962054 0.0103517 0.0110779 0.0180521 0.0195292 0.0210134 0.0224876 0.00696627 0.00872538 0.0108698 0.0134668 0.0100472 0.0125843 0.015677 0.0194226 0.00696633 0.00791374 0.00894109 0.0100476 0.0134674 0.0152989 0.017285 0.019424 0.0100472 0.0125843 0.015677 0.0194226 0.0138001 0.0172848 0.0215328 0.0266775 0.0100474 0.0112293 0.0124824 0.0138004 0.0194237 0.0217086 0.0241311 0.0266791 0.0134668 0.016596 0.0203402 0.0247946 0.0194226 0.0239357 0.0293358 0.0357602 0.0134674 0.0152989 0.017285 0.019424 0.0247945 0.0281664 0.031823 0.0357611 0.0194226 0.0239357 0.0293358 0.0357602 0.0266775 0.0328763 0.0402936 0.0491176 0.0194237 0.0217086 0.0241311 0.0266791 0.0357605 0.0399673 0.0444272 0.0491183 0.0138001 0.0172848 0.0215328 0.0266775 0.0180515 0.0226098 0.0281665 0.0348962 0.0138005 0.0151747 0.0165959 0.0180518 0.0266792 0.0293359 0.0320833 0.0348979 0.0180515 0.0226098 0.0281665 0.0348962 0.0224874 0.0281659 0.035088 0.0434714 0.0180521 0.0195292 0.0210134 0.0224876 0.0348984 0.0377539 0.0406232 0.0434732 0.0266775 0.0328763 0.0402936 0.0491176 0.0348961 0.0430047 0.0527069 0.0642494 0.0266792 0.0293359 0.0320833 0.0348979 0.0491185 0.0540097 0.0590679 0.0642497 0.0348961 0.0430047 0.0527069 0.0642494 0.0434713 0.0535724 0.0656589 0.0800378 0.0348984 0.0377539 0.0406232 0.0434732 0.0642508 0.0695079 0.0747906 0.0800376 0.00519813 0.00672434 0.00865542 0.0110757 0.00616691 0.00797756 0.0102685 0.0131398 0.00519737 0.00553179 0.00585617 0.00616574 0.0110782 0.0117912 0.0124825 0.0131425 0.00616691 0.00797756 0.0102685 0.0131398 0.00696758 0.00901331 0.0116017 0.0148458 0.00616598 0.0064568 0.00672506 0.00696625 0.0131428 0.0137629 0.0143346 0.0148488 0.0110786 0.0141024 0.0178576 0.0224852 0.0131433 0.0167307 0.0211857 0.0266757 0.0110782 0.0117912 0.0124825 0.0131425 0.0224882 0.0239354 0.0253388 0.0266785 0.0131433 0.0167307 0.0211857 0.0266757 0.0148498 0.0189029 0.0239364 0.0301391 0.0131428 0.0137629 0.0143346 0.0148488 0.0266792 0.0279378 0.0290984 0.0301422 0.00696758 0.00901331 0.0116017 0.0148458 0.00749706 0.00969824 0.0124834 0.015974 0.00696647 0.00717736 0.00735483 0.00749565 0.0148491 0.0152987 0.0156769 0.0159772 0.00749706 0.00969824 0.0124834 0.015974 0.00768236 0.00993792 0.0127919 0.0163687 0.00749578 0.00759812 0.00766024 0.00768096 0.0159774 0.0161956 0.016328 0.0163722 0.0148498 0.0189029 0.0239364 0.0301391 0.0159782 0.0203393 0.0257553 0.0324294 0.0148491 0.0152987 0.0156769 0.0159772 0.0301428 0.0310555 0.0318233 0.0324328 0.0159782 0.0203393 0.0257553 0.0324294 0.0163731 0.020842 0.0263919 0.0332309 0.0159774 0.0161956 0.016328 0.0163722 0.0324332 0.0328761 0.0331448 0.0332346 0.0224874 0.0281659 0.035088 0.0434714 0.0266784 0.0334152 0.0416274 0.0515732 0.0224882 0.0239354 0.0253388 0.0266785 0.0434742 0.0462721 0.0489851 0.0515751 0.0266784 0.0334152 0.0416274 0.0515732 0.0301421 0.0377536 0.047032 0.0582691 0.0266792 0.0279378 0.0290984 0.0301422 0.0515763 0.0540096 0.0562531 0.0582712 0.0434713 0.0535724 0.0656589 0.0800378 0.0515731 0.0635568 0.0778958 0.0949545 0.0434742 0.0462721 0.0489851 0.0515751 0.0800394 0.0851905 0.0901854 0.0949538 0.0515731 0.0635568 0.0778958 0.0949545 0.058269 0.0718085 0.0880092 0.107283 0.0515763 0.0540096 0.0562531 0.0582712 0.094956 0.0994359 0.103566 0.107282 0.0301421 0.0377536 0.047032 0.0582691 0.0324326 0.0406225 0.0506061 0.0626971 0.0301428 0.0310555 0.0318233 0.0324328 0.0582723 0.0600368 0.061521 0.0626994 0.0324326 0.0406225 0.0506061 0.0626971 0.0332342 0.0416265 0.0518568 0.0642466 0.0324332 0.0328761 0.0331448 0.0332346 0.0627001 0.0635563 0.0640758 0.0642493 0.058269 0.0718085 0.0880092 0.107283 0.062697 0.0772654 0.0946971 0.115435 0.0582723 0.0600368 0.061521 0.0626994 0.107284 0.110532 0.113265 0.115435 0.062697 0.0772654 0.0946971 0.115435 0.0642465 0.0791749 0.0970375 0.118288 0.0627001 0.0635563 0.0640758 0.0642493 0.115436 0.117012 0.117968 0.118288 0.0247932 0.0300615 0.0362482 0.0434745 0.0357582 0.0433565 0.0522793 0.0627015 0.0247945 0.0281664 0.031823 0.0357611 0.0434732 0.0493854 0.0557966 0.0627014 0.0357582 0.0433565 0.0522793 0.0627015 0.049115 0.0595513 0.0718071 0.0861222 0.0357605 0.0399673 0.0444272 0.0491183 0.0627004 0.0700763 0.0778961 0.0861212 0.0434712 0.0518572 0.0615198 0.0725939 0.0626968 0.0747916 0.0887275 0.104699 0.0434732 0.0493854 0.0557966 0.0627014 0.0725909 0.082463 0.0931684 0.104698 0.0626968 0.0747916 0.0887275 0.104699 0.0861159 0.102728 0.12187 0.143807 0.0627004 0.0700763 0.0778961 0.0861212 0.104696 0.117012 0.13007 0.143804 0.049115 0.0595513 0.0718071 0.0861222 0.064246 0.0778974 0.0939289 0.112654 0.0491185 0.0540097 0.0590679 0.0642497 0.0861214 0.0946975 0.103566 0.112652 0.064246 0.0778974 0.0939289 0.112654 0.0800335 0.0970396 0.117011 0.140337 0.0642508 0.0695079 0.0747906 0.0800376 0.112653 0.121871 0.131133 0.140333 0.0861159 0.102728 0.12187 0.143807 0.112646 0.134376 0.159415 0.18811 0.0861214 0.0946975 0.103566 0.112652 0.143804 0.158125 0.172933 0.188104 0.112646 0.134376 0.159415 0.18811 0.140327 0.167397 0.198588 0.234336 0.112653 0.121871 0.131133 0.140333 0.188107 0.203499 0.218965 0.234326 0.0725886 0.0851923 0.099435 0.11544 0.104692 0.122869 0.143411 0.166494 0.0725909 0.082463 0.0931684 0.104698 0.115435 0.131134 0.148157 0.166492 0.104692 0.122869 0.143411 0.166494 0.143797 0.168765 0.196979 0.228684 0.104696 0.117012 0.13007 0.143804 0.166489 0.186075 0.206839 0.228679 0.115433 0.133286 0.153059 0.174824 0.166485 0.192233 0.220751 0.252142 0.115435 0.131134 0.148157 0.166492 0.174818 0.198593 0.224374 0.25214 0.166485 0.192233 0.220751 0.252142 0.228671 0.264038 0.303207 0.346324 0.166489 0.186075 0.206839 0.228679 0.252136 0.281797 0.313242 0.346318 0.143797 0.168765 0.196979 0.228684 0.188097 0.220756 0.257663 0.299136 0.143804 0.158125 0.172933 0.188104 0.228679 0.251451 0.275 0.299125 0.188097 0.220756 0.257663 0.299136 0.234319 0.275004 0.32098 0.372644 0.188107 0.203499 0.218965 0.234326 0.29913 0.323606 0.3482 0.372629 0.228671 0.264038 0.303207 0.346324 0.299119 0.34538 0.396617 0.453017 0.228679 0.251451 0.275 0.299125 0.346319 0.380806 0.416469 0.453005 0.299119 0.34538 0.396617 0.453017 0.372623 0.430253 0.49408 0.56434 0.29913 0.323606 0.3482 0.372629 0.453012 0.490078 0.527325 0.56432 0.0800335 0.0970396 0.117011 0.140337 0.0949494 0.115125 0.138818 0.166492 0.0800394 0.0851905 0.0901854 0.0949538 0.140336 0.149368 0.158126 0.166486 0.0949494 0.115125 0.138818 0.166492 0.107277 0.130072 0.156841 0.188108 0.094956 0.0994359 0.103566 0.107282 0.16649 0.174345 0.181587 0.188102 0.140327 0.167397 0.198588 0.234336 0.16648 0.198595 0.235599 0.278009 0.140336 0.149368 0.158126 0.166486 0.234332 0.249413 0.264036 0.277997 0.16648 0.198595 0.235599 0.278009 0.188094 0.224379 0.266188 0.314104 0.16649 0.174345 0.181587 0.188102 0.278003 0.291119 0.303212 0.31409 0.107277 0.130072 0.156841 0.188108 0.115429 0.139956 0.16876 0.202403 0.107284 0.110532 0.113265 0.115435 0.188105 0.193801 0.198592 0.202396 0.115429 0.139956 0.16876 0.202403 0.118282 0.143415 0.172931 0.207405 0.115436 0.117012 0.117968 0.118288 0.202398 0.205162 0.206839 0.207399 0.188094 0.224379 0.266188 0.314104 0.202388 0.24143 0.286416 0.337973 0.188105 0.193801 0.198592 0.202396 0.314095 0.323606 0.331606 0.337958 0.202388 0.24143 0.286416 0.337973 0.20739 0.247397 0.293495 0.346326 0.202398 0.205162 0.206839 0.207399 0.337962 0.342577 0.345377 0.346312 0.234319 0.275004 0.32098 0.372644 0.277989 0.326257 0.380801 0.442094 0.234332 0.249413 0.264036 0.277997 0.372637 0.396619 0