# vtk DataFile Version 3.0
#This file was generated by the deal.II library on 2020/7/10 at 23:10:06
ASCII
DATASET UNSTRUCTURED_GRID

POINTS 40 double
0 1 0
0.309017 0.951057 0
0.309017 0.951057 0
0.587785 0.809017 0
0.587785 0.809017 0
0.809017 0.587785 0
0.809017 0.587785 0
0.951057 0.309017 0
0.951057 0.309017 0
1 2.77556e-16 0
1 2.77556e-16 0
0.951057 -0.309017 0
0.951057 -0.309017 0
0.809017 -0.587785 0
0.809017 -0.587785 0
0.587785 -0.809017 0
0.587785 -0.809017 0
0.309017 -0.951057 0
0.309017 -0.951057 0
0 -1 0
0 -1 0
-0.309017 -0.951057 0
-0.309017 -0.951057 0
-0.587785 -0.809017 0
-0.587785 -0.809017 0
-0.809017 -0.587785 0
-0.809017 -0.587785 0
-0.951057 -0.309017 0
-0.951057 -0.309017 0
-1 -2.77556e-16 0
-1 -2.77556e-16 0
-0.951057 0.309017 0
-0.951057 0.309017 0
-0.809017 0.587785 0
-0.809017 0.587785 0
-0.587785 0.809017 0
-0.587785 0.809017 0
-0.309017 0.951057 0
-0.309017 0.951057 0
0 1 0

CELLS 20 60
2	0	1
2	2	3
2	4	5
2	6	7
2	8	9
2	10	11
2	12	13
2	14	15
2	16	17
2	18	19
2	20	21
2	22	23
2	24	25
2	26	27
2	28	29
2	30	31
2	32	33
2	34	35
2	36	37
2	38	39

CELL_TYPES 20
 3 3 3 3 3 3 3 3 3 3 3 3 3 3 3 3 3 3 3 3
POINT_DATA 40
SCALARS phi double 1
LOOKUP_TABLE default
0.982002 1.2374 1.2374 1.37166 1.37166 1.37166 1.37166 1.2374 1.2374 0.982002 0.982002 0.630484 0.630484 0.21725 0.21725 -0.21725 -0.21725 -0.630484 -0.630484 -0.982002 -0.982002 -1.2374 -1.2374 -1.37166 -1.37166 -1.37166 -1.37166 -1.2374 -1.2374 -0.982002 -0.982002 -0.630484 -0.630484 -0.21725 -0.21725 0.21725 0.21725 0.630484 0.630484 0.982002 
SCALARS alpha double 1
LOOKUP_TABLE default
0.55 0.55 0.55 0.55 0.55 0.55 0.55 0.55 0.55 0.55 0.55 0.55 0.55 0.55 0.55 0.55 0.55 0.55 0.55 0.55 0.55 0.55 0.55 0.55 0.55 0.55 0.55 0.55 0.55 0.55 0.55 0.55 0.55 0.55 0.55 0.55 0.55 0.55 0.55 0.55 
