# vtk DataFile Version 3.0
#This file was generated by the deal.II library on 2020/7/10 at 23:10:16
ASCII
DATASET UNSTRUCTURED_GRID

POINTS 2560 double
0 1 0
0.00490872 0.999988 0
0.00490872 0.999988 0
0.00981732 0.999952 0
0.00981732 0.999952 0
0.0147257 0.999892 0
0.0147257 0.999892 0
0.0196337 0.999807 0
0.0196337 0.999807 0
0.0245412 0.999699 0
0.0245412 0.999699 0
0.0294482 0.999566 0
0.0294482 0.999566 0
0.0343544 0.99941 0
0.0343544 0.99941 0
0.0392598 0.999229 0
0.0392598 0.999229 0
0.0441643 0.999024 0
0.0441643 0.999024 0
0.0490677 0.998795 0
0.0490677 0.998795 0
0.0539699 0.998543 0
0.0539699 0.998543 0
0.0588708 0.998266 0
0.0588708 0.998266 0
0.0637703 0.997965 0
0.0637703 0.997965 0
0.0686683 0.99764 0
0.0686683 0.99764 0
0.0735646 0.99729 0
0.0735646 0.99729 0
0.0784591 0.996917 0
0.0784591 0.996917 0
0.0833517 0.99652 0
0.0833517 0.99652 0
0.0882424 0.996099 0
0.0882424 0.996099 0
0.0931309 0.995654 0
0.0931309 0.995654 0
0.0980171 0.995185 0
0.0980171 0.995185 0
0.102901 0.994692 0
0.102901 0.994692 0
0.107782 0.994175 0
0.107782 0.994175 0
0.112661 0.993633 0
0.112661 0.993633 0
0.117537 0.993068 0
0.117537 0.993068 0
0.122411 0.99248 0
0.122411 0.99248 0
0.127281 0.991867 0
0.127281 0.991867 0
0.132148 0.99123 0
0.132148 0.99123 0
0.137012 0.990569 0
0.137012 0.990569 0
0.141873 0.989885 0
0.141873 0.989885 0
0.14673 0.989177 0
0.14673 0.989177 0
0.151584 0.988444 0
0.151584 0.988444 0
0.156434 0.987688 0
0.156434 0.987688 0
0.161281 0.986909 0
0.161281 0.986909 0
0.166123 0.986105 0
0.166123 0.986105 0
0.170962 0.985278 0
0.170962 0.985278 0
0.175796 0.984427 0
0.175796 0.984427 0
0.180626 0.983552 0
0.180626 0.983552 0
0.185452 0.982653 0
0.185452 0.982653 0
0.190274 0.981731 0
0.190274 0.981731 0
0.19509 0.980785 0
0.19509 0.980785 0
0.199902 0.979816 0
0.199902 0.979816 0
0.20471 0.978823 0
0.20471 0.978823 0
0.209512 0.977806 0
0.209512 0.977806 0
0.214309 0.976766 0
0.214309 0.976766 0
0.219101 0.975702 0
0.219101 0.975702 0
0.223888 0.974615 0
0.223888 0.974615 0
0.228669 0.973504 0
0.228669 0.973504 0
0.233445 0.97237 0
0.233445 0.97237 0
0.238216 0.971212 0
0.238216 0.971212 0
0.24298 0.970031 0
0.24298 0.970031 0
0.247739 0.968827 0
0.247739 0.968827 0
0.252492 0.967599 0
0.252492 0.967599 0
0.257238 0.966348 0
0.257238 0.966348 0
0.261979 0.965074 0
0.261979 0.965074 0
0.266713 0.963776 0
0.266713 0.963776 0
0.27144 0.962455 0
0.27144 0.962455 0
0.276162 0.961111 0
0.276162 0.961111 0
0.280876 0.959744 0
0.280876 0.959744 0
0.285584 0.958354 0
0.285584 0.958354 0
0.290285 0.95694 0
0.290285 0.95694 0
0.294979 0.955504 0
0.294979 0.955504 0
0.299665 0.954044 0
0.299665 0.954044 0
0.304345 0.952562 0
0.304345 0.952562 0
0.309017 0.951057 0
0.309017 0.951057 0
0.313682 0.949528 0
0.313682 0.949528 0
0.318339 0.947977 0
0.318339 0.947977 0
0.322988 0.946403 0
0.322988 0.946403 0
0.32763 0.944806 0
0.32763 0.944806 0
0.332264 0.943186 0
0.332264 0.943186 0
0.33689 0.941544 0
0.33689 0.941544 0
0.341508 0.939879 0
0.341508 0.939879 0
0.346117 0.938191 0
0.346117 0.938191 0
0.350718 0.936481 0
0.350718 0.936481 0
0.355311 0.934748 0
0.355311 0.934748 0
0.359895 0.932993 0
0.359895 0.932993 0
0.36447 0.931215 0
0.36447 0.931215 0
0.369037 0.929415 0
0.369037 0.929415 0
0.373595 0.927592 0
0.373595 0.927592 0
0.378144 0.925747 0
0.378144 0.925747 0
0.382683 0.92388 0
0.382683 0.92388 0
0.387214 0.92199 0
0.387214 0.92199 0
0.391735 0.920078 0
0.391735 0.920078 0
0.396247 0.918144 0
0.396247 0.918144 0
0.400749 0.916188 0
0.400749 0.916188 0
0.405241 0.91421 0
0.405241 0.91421 0
0.409724 0.91221 0
0.409724 0.91221 0
0.414197 0.910187 0
0.414197 0.910187 0
0.41866 0.908143 0
0.41866 0.908143 0
0.423113 0.906077 0
0.423113 0.906077 0
0.427555 0.903989 0
0.427555 0.903989 0
0.431987 0.90188 0
0.431987 0.90188 0
0.436409 0.899748 0
0.436409 0.899748 0
0.440821 0.897595 0
0.440821 0.897595 0
0.445221 0.895421 0
0.445221 0.895421 0
0.449611 0.893224 0
0.449611 0.893224 0
0.45399 0.891007 0
0.45399 0.891007 0
0.458359 0.888767 0
0.458359 0.888767 0
0.462716 0.886507 0
0.462716 0.886507 0
0.467062 0.884225 0
0.467062 0.884225 0
0.471397 0.881921 0
0.471397 0.881921 0
0.47572 0.879597 0
0.47572 0.879597 0
0.480032 0.877251 0
0.480032 0.877251 0
0.484333 0.874884 0
0.484333 0.874884 0
0.488621 0.872496 0
0.488621 0.872496 0
0.492898 0.870087 0
0.492898 0.870087 0
0.497163 0.867657 0
0.497163 0.867657 0
0.501416 0.865206 0
0.501416 0.865206 0
0.505657 0.862734 0
0.505657 0.862734 0
0.509886 0.860242 0
0.509886 0.860242 0
0.514103 0.857729 0
0.514103 0.857729 0
0.518307 0.855195 0
0.518307 0.855195 0
0.522499 0.85264 0
0.522499 0.85264 0
0.526678 0.850065 0
0.526678 0.850065 0
0.530844 0.84747 0
0.530844 0.84747 0
0.534998 0.844854 0
0.534998 0.844854 0
0.539138 0.842217 0
0.539138 0.842217 0
0.543266 0.839561 0
0.543266 0.839561 0
0.547381 0.836884 0
0.547381 0.836884 0
0.551482 0.834187 0
0.551482 0.834187 0
0.55557 0.83147 0
0.55557 0.83147 0
0.559645 0.828732 0
0.559645 0.828732 0
0.563706 0.825975 0
0.563706 0.825975 0
0.567754 0.823198 0
0.567754 0.823198 0
0.571788 0.820401 0
0.571788 0.820401 0
0.575808 0.817585 0
0.575808 0.817585 0
0.579815 0.814748 0
0.579815 0.814748 0
0.583807 0.811893 0
0.583807 0.811893 0
0.587785 0.809017 0
0.587785 0.809017 0
0.591749 0.806122 0
0.591749 0.806122 0
0.595699 0.803208 0
0.595699 0.803208 0
0.599635 0.800274 0
0.599635 0.800274 0
0.603556 0.797321 0
0.603556 0.797321 0
0.607462 0.794348 0
0.607462 0.794348 0
0.611354 0.791357 0
0.611354 0.791357 0
0.615232 0.788346 0
0.615232 0.788346 0
0.619094 0.785317 0
0.619094 0.785317 0
0.622941 0.782269 0
0.622941 0.782269 0
0.626774 0.779201 0
0.626774 0.779201 0
0.630591 0.776115 0
0.630591 0.776115 0
0.634393 0.77301 0
0.634393 0.77301 0
0.63818 0.769887 0
0.63818 0.769887 0
0.641952 0.766745 0
0.641952 0.766745 0
0.645708 0.763585 0
0.645708 0.763585 0
0.649448 0.760406 0
0.649448 0.760406 0
0.653173 0.757209 0
0.653173 0.757209 0
0.656882 0.753993 0
0.656882 0.753993 0
0.660575 0.75076 0
0.660575 0.75076 0
0.664252 0.747508 0
0.664252 0.747508 0
0.667914 0.744239 0
0.667914 0.744239 0
0.671559 0.740951 0
0.671559 0.740951 0
0.675188 0.737646 0
0.675188 0.737646 0
0.678801 0.734323 0
0.678801 0.734323 0
0.682397 0.730982 0
0.682397 0.730982 0
0.685977 0.727623 0
0.685977 0.727623 0
0.689541 0.724247 0
0.689541 0.724247 0
0.693087 0.720854 0
0.693087 0.720854 0
0.696617 0.717443 0
0.696617 0.717443 0
0.700131 0.714015 0
0.700131 0.714015 0
0.703627 0.710569 0
0.703627 0.710569 0
0.707107 0.707107 0
0.707107 0.707107 0
0.710569 0.703627 0
0.710569 0.703627 0
0.714015 0.700131 0
0.714015 0.700131 0
0.717443 0.696617 0
0.717443 0.696617 0
0.720854 0.693087 0
0.720854 0.693087 0
0.724247 0.689541 0
0.724247 0.689541 0
0.727623 0.685977 0
0.727623 0.685977 0
0.730982 0.682397 0
0.730982 0.682397 0
0.734323 0.678801 0
0.734323 0.678801 0
0.737646 0.675188 0
0.737646 0.675188 0
0.740951 0.671559 0
0.740951 0.671559 0
0.744239 0.667914 0
0.744239 0.667914 0
0.747508 0.664252 0
0.747508 0.664252 0
0.75076 0.660575 0
0.75076 0.660575 0
0.753993 0.656882 0
0.753993 0.656882 0
0.757209 0.653173 0
0.757209 0.653173 0
0.760406 0.649448 0
0.760406 0.649448 0
0.763585 0.645708 0
0.763585 0.645708 0
0.766745 0.641952 0
0.766745 0.641952 0
0.769887 0.63818 0
0.769887 0.63818 0
0.77301 0.634393 0
0.77301 0.634393 0
0.776115 0.630591 0
0.776115 0.630591 0
0.779201 0.626774 0
0.779201 0.626774 0
0.782269 0.622941 0
0.782269 0.622941 0
0.785317 0.619094 0
0.785317 0.619094 0
0.788346 0.615232 0
0.788346 0.615232 0
0.791357 0.611354 0
0.791357 0.611354 0
0.794348 0.607462 0
0.794348 0.607462 0
0.797321 0.603556 0
0.797321 0.603556 0
0.800274 0.599635 0
0.800274 0.599635 0
0.803208 0.595699 0
0.803208 0.595699 0
0.806122 0.591749 0
0.806122 0.591749 0
0.809017 0.587785 0
0.809017 0.587785 0
0.811893 0.583807 0
0.811893 0.583807 0
0.814748 0.579815 0
0.814748 0.579815 0
0.817585 0.575808 0
0.817585 0.575808 0
0.820401 0.571788 0
0.820401 0.571788 0
0.823198 0.567754 0
0.823198 0.567754 0
0.825975 0.563706 0
0.825975 0.563706 0
0.828732 0.559645 0
0.828732 0.559645 0
0.83147 0.55557 0
0.83147 0.55557 0
0.834187 0.551482 0
0.834187 0.551482 0
0.836884 0.547381 0
0.836884 0.547381 0
0.839561 0.543266 0
0.839561 0.543266 0
0.842217 0.539138 0
0.842217 0.539138 0
0.844854 0.534998 0
0.844854 0.534998 0
0.84747 0.530844 0
0.84747 0.530844 0
0.850065 0.526678 0
0.850065 0.526678 0
0.85264 0.522499 0
0.85264 0.522499 0
0.855195 0.518307 0
0.855195 0.518307 0
0.857729 0.514103 0
0.857729 0.514103 0
0.860242 0.509886 0
0.860242 0.509886 0
0.862734 0.505657 0
0.862734 0.505657 0
0.865206 0.501416 0
0.865206 0.501416 0
0.867657 0.497163 0
0.867657 0.497163 0
0.870087 0.492898 0
0.870087 0.492898 0
0.872496 0.488621 0
0.872496 0.488621 0
0.874884 0.484333 0
0.874884 0.484333 0
0.877251 0.480032 0
0.877251 0.480032 0
0.879597 0.47572 0
0.879597 0.47572 0
0.881921 0.471397 0
0.881921 0.471397 0
0.884225 0.467062 0
0.884225 0.467062 0
0.886507 0.462716 0
0.886507 0.462716 0
0.888767 0.458359 0
0.888767 0.458359 0
0.891007 0.45399 0
0.891007 0.45399 0
0.893224 0.449611 0
0.893224 0.449611 0
0.895421 0.445221 0
0.895421 0.445221 0
0.897595 0.440821 0
0.897595 0.440821 0
0.899748 0.436409 0
0.899748 0.436409 0
0.90188 0.431987 0
0.90188 0.431987 0
0.903989 0.427555 0
0.903989 0.427555 0
0.906077 0.423113 0
0.906077 0.423113 0
0.908143 0.41866 0
0.908143 0.41866 0
0.910187 0.414197 0
0.910187 0.414197 0
0.91221 0.409724 0
0.91221 0.409724 0
0.91421 0.405241 0
0.91421 0.405241 0
0.916188 0.400749 0
0.916188 0.400749 0
0.918144 0.396247 0
0.918144 0.396247 0
0.920078 0.391735 0
0.920078 0.391735 0
0.92199 0.387214 0
0.92199 0.387214 0
0.92388 0.382683 0
0.92388 0.382683 0
0.925747 0.378144 0
0.925747 0.378144 0
0.927592 0.373595 0
0.927592 0.373595 0
0.929415 0.369037 0
0.929415 0.369037 0
0.931215 0.36447 0
0.931215 0.36447 0
0.932993 0.359895 0
0.932993 0.359895 0
0.934748 0.355311 0
0.934748 0.355311 0
0.936481 0.350718 0
0.936481 0.350718 0
[...]
POINT_DATA 2560
SCALARS phi double 1
LOOKUP_TABLE default
0.999996 1.00489 1.00489 1.00977 1.00977 1.01461 1.01461 1.01944 1.01944 1.02424 1.02424 1.02901 1.02901 1.03376 1.03376 1.03848 1.03848 1.04318 1.04318 1.04786 1.04786 1.05251 1.05251 1.05713 1.05713 1.06173 1.06173 1.0663 1.0663 1.07085 1.07085 1.07537 1.07537 1.07987 1.07987 1.08434 1.08434 1.08878 1.08878 1.0932 1.0932 1.09759 1.09759 1.10195 1.10195 1.10629 1.10629 1.1106 1.1106 1.11489 1.11489 1.11914 1.11914 1.12337 1.12337 1.12758 1.12758 1.13175 1.13175 1.1359 1.1359 1.14002 1.14002 1.14412 1.14412 1.14818 1.14818 1.15222 1.15222 1.15623 1.15623 1.16022 1.16022 1.16417 1.16417 1.1681 1.1681 1.172 1.172 1.17587 1.17587 1.17971 1.17971 1.18353 1.18353 1.18731 1.18731 1.19107 1.19107 1.1948 1.1948 1.1985 1.1985 1.20217 1.20217 1.20581 1.20581 1.20942 1.20942 1.21301 1.21301 1.21656 1.21656 1.22009 1.22009 1.22358 1.22358 1.22705 1.22705 1.23048 1.23048 1.23389 1.23389 1.23727 1.23727 1.24062 1.24062 1.24393 1.24393 1.24722 1.24722 1.25048 1.25048 1.2537 1.2537 1.2569 1.2569 1.26007 1.26007 1.2632 1.2632 1.26631 1.26631 1.26939 1.26939 1.27243 1.27243 1.27545 1.27545 1.27843 1.27843 1.28138 1.28138 1.2843 1.2843 1.28719 1.28719 1.29005 1.29005 1.29288 1.29288 1.29568 1.29568 1.29845 1.29845 1.30118 1.30118 1.30389 1.30389 1.30656 1.30656 1.3092 1.3092 1.31181 1.31181 1.31439 1.31439 1.31693 1.31693 1.31945 1.31945 1.32193 1.32193 1.32438 1.32438 1.3268 1.3268 1.32918 1.32918 1.33154 1.33154 1.33386 1.33386 1.33615 1.33615 1.33841 1.33841 1.34064 1.34064 1.34283 1.34283 1.34499 1.34499 1.34712 1.34712 1.34922 1.34922 1.35128 1.35128 1.35331 1.35331 1.35531 1.35531 1.35728 1.35728 1.35921 1.35921 1.36111 1.36111 1.36298 1.36298 1.36481 1.36481 1.36662 1.36662 1.36839 1.36839 1.37012 1.37012 1.37183 1.37183 1.3735 1.3735 1.37513 1.37513 1.37674 1.37674 1.37831 1.37831 1.37985 1.37985 1.38135 1.38135 1.38282 1.38282 1.38426 1.38426 1.38566 1.38566 1.38703 1.38703 1.38837 1.38837 1.38968 1.38968 1.39095 1.39095 1.39218 1.39218 1.39339 1.39339 1.39456 1.39456 1.39569 1.39569 1.3968 1.3968 1.39787 1.39787 1.3989 1.3989 1.3999 1.3999 1.40087 1.40087 1.40181 1.40181 1.40271 1.40271 1.40357 1.40357 1.40441 1.40441 1.4052 1.4052 1.40597 1.40597 1.4067 1.4067 1.4074 1.4074 1.40806 1.40806 1.40869 1.40869 1.40929 1.40929 1.40985 1.40985 1.41038 1.41038 1.41087 1.41087 1.41133 1.41133 1.41176 1.41176 1.41215 1.41215 1.4125 1.4125 1.41283 1.41283 1.41312 1.41312 1.41337 1.41337 1.41359 1.41359 1.41378 1.41378 1.41394 1.41394 1.41405 1.41405 1.41414 1.41414 1.41419 1.41419 1.41421 1.41421 1.41419 1.41419 1.41414 1.41414 1.41405 1.41405 1.41394 1.41394 1.41378 1.41378 1.41359 1.41359 1.41337 1.41337 1.41312 1.41312 1.41283 1.41283 1.4125 1.4125 1.41215 1.41215 1.41176 1.41176 1.41133 1.41133 1.41087 1.41087 1.41038 1.41038 1.40985 1.40985 1.40929 1.40929 1.40869 1.40869 1.40806 1.40806 1.4074 1.4074 1.4067 1.4067 1.40597 1.40597 1.4052 1.4052 1.40441 1.40441 1.40357 1.40357 1.40271 1.40271 1.40181 1.40181 1.40087 1.40087 1.3999 1.3999 1.3989 1.3989 1.39787 1.39787 1.3968 1.3968 1.39569 1.39569 1.39456 1.39456 1.39339 1.39339 1.39218 1.39218 1.39095 1.39095 1.38968 1.38968 1.38837 1.38837 1.38703 1.38703 1.38566 1.38566 1.38426 1.38426 1.38282 1.38282 1.38135 1.38135 1.37985 1.37985 1.37831 1.37831 1.37674 1.37674 1.37513 1.37513 1.3735 1.3735 1.37183 1.37183 1.37012 1.37012 1.36839 1.36839 1.36662 1.36662 1.36481 1.36481 1.36298 1.36298 1.36111 1.36111 1.35921 1.35921 1.35728 1.35728 1.35531 1.35531 1.35331 1.35331 1.35128 1.35128 1.34922 1.34922 1.34712 1.34712 1.34499 1.34499 1.34283 1.34283 1.34064 1.34064 1.33841 1.33841 1.33615 1.33615 1.33386 1.33386 1.33154 1.33154 1.32918 1.32918 1.3268 1.3268 1.32438 1.32438 1.32193 1.32193 1.31945 1.31945 1.31693 1.31693 1.31439 1.31439 1.31181 1.31181 1.3092 1.3092 1.30656 1.30656 1.30389 1.30389 1.30118 1.30118 1.29845 1.29845 1.29568 1.29568 1.29288 1.29288 1.29005 1.29005 1.28719 1.28719 1.2843 1.2843 1.28138 1.28138 1.27843 1.27843 1.27545 1.27545 1.27243 1.27243 1.26939 1.26939 1.26631 1.26631 1.2632 1.2632 1.26007 1.26007 1.2569 1.2569 1.2537 1.2537 1.25048 1.25048 1.24722 1.24722 1.24393 1.24393 1.24062 1.24062 1.23727 1.23727 1.23389 1.23389 1.23048 1.23048 1.22705 1.22705 1.22358 1.22358 1.22009 1.22009 1.21656 1.21656 1.21301 1.21301 1.20942 1.20942 1.20581 1.20581 1.20217 1.20217 1.1985 1.1985 1.1948 1.1948 1.19107 1.19107 1.18731 1.18731 1.18353 1.18353 1.17971 1.17971 1.17587 1.17587 1.172 1.172 1.1681 1.1681 1.16417 1.16417 1.16022 1.16022 1.15623 1.15623 1.15222 1.15222 1.14818 1.14818 1.14412 1.14412 1.14002 1.14002 1.1359 1.1359 1.13175 1.13175 1.12758 1.12758 1.12337 1.12337 1.11914 1.11914 1.11489 1.11489 1.1106 1.1106 1.10629 1.10629 1.10195 1.10195 1.09759 1.09759 1.0932 1.0932 1.08878 1.08878 1.08434 1.08434 1.07987 1.07987 1.07537 1.07537 1.07085 1.07085 1.0663 1.0663 1.06173 1.06173 1.05713 1.05713 1.05251 1.05251 1.04786 1.04786 1.04318 1.04318 1.03848 1.03848 1.03376 1.03376 1.02901 1.02901 1.02424 1.02424 1.01944 1.01944 1.01461 1.01461 1.00977 1.00977 1.00489 1.00489 0.999996 0.999996 0.995075 0.995075 0.99013 0.99013 0.985162 0.985162 0.98017 0.98017 0.975154 0.975154 0.970114 0.970114 0.965051 0.965051 0.959965 0.959965 0.954856 0.954856 0.949724 0.949724 0.944569 0.944569 0.939391 0.939391 0.934191 0.934191 0.928968 0.928968 0.923722 0.923722 0.918455 0.918455 0.913165 0.913165 0.907853 0.907853 0.902519 0.902519 0.897164 0.897164 0.891787 0.891787 0.886388 0.886388 0.880969 0.880969 0.875528 0.875528 0.870065 0.870065 0.864582 0.864582 0.859078 0.859078 0.853554 0.853554 0.848008 0.848008 0.842443 0.842443 0.836857 0.836857 0.831251 0.831251 0.825624 0.825624 0.819978 0.819978 0.814312 0.814312 0.808627 0.808627 0.802922 0.802922 0.797198 0.797198 0.791454 0.791454 0.785692 0.785692 0.77991 0.77991 0.77411 0.77411 0.768291 0.768291 0.762454 0.762454 0.756598 0.756598 0.750724 0.750724 0.744832 0.744832 0.738922 0.738922 0.732994 0.732994 0.727048 0.727048 0.721085 0.721085 0.715105 0.715105 0.709107 0.709107 0.703092 0.703092 0.697061 0.697061 0.691012 0.691012 0.684947 0.684947 0.678865 0.678865 0.672767 0.672767 0.666653 0.666653 0.660523 0.660523 0.654377 0.654377 0.648215 0.648215 0.642037 0.642037 0.635844 0.635844 0.629636 0.629636 0.623412 0.623412 0.617173 0.617173 0.61092 0.61092 0.604652 0.604652 0.598369 0.598369 0.592072 0.592072 0.58576 0.58576 0.579435 0.579435 0.573095 0.573095 0.566742 0.566742 0.560375 0.560375 0.553995 0.553995 0.547601 0.547601 0.541194 0.541194 0.534774 0.534774 0.528341 0.528341 0.521895 0.521895 0.515437 0.515437 0.508966 0.508966 0.502483 0.502483 0.495988 0.495988 0.489481 0.489481 0.482963 0.482963 0.476432 0.476432 0.46989 0.46989 0.463337 0.463337 0.456773 0.456773 0.450197 0.450197 0.443611 0.443611 0.437014 0.437014 0.430407 0.430407 0.423789 0.423789 0.417161 0.417161 0.410523 0.410523 0.403875 0.403875 0.397217 0.397217 0.39055 0.39055 0.383873 0.383873 0.377187 0.377187 0.370492 0.370492 0.363788 0.363788 0.357076 0.357076 0.350354 0.350354 0.343624 0.343624 0.336886 0.336886 0.33014 0.33014 0.323386 0.323386 0.316624 0.316624 0.309855 0.309855 0.303078 0.303078 0.296293 0.296293 0.289502 0.289502 0.282704 0.282704 0.275898 0.275898 0.269086 0.269086 0.262268 0.262268 0.255443 0.255443 0.248612 0.248612 0.241776 0.241776 0.234933 0.234933 0.228085 0.228085 0.221231 0.221231 0.214372 0.214372 0.207507 0.207507 0.200638 0.200638 0.193764 0.193764 0.186885 0.186885 0.180002 0.180002 0.173114 0.173114 0.166222 0.166222 0.159326 0.159326 0.152427 0.152427 0.145523 0.145523 0.138617 0.138617 0.131706 0.131706 0.124793 0.124793 0.117877 0.117877 0.110957 0.110957 0.104036 0.104036 0.0971112 0.0971112 0.0901845 0.0901845 0.0832556 0.0832556 0.0763246 0.0763246 0.0693919 0.0693919 0.0624575 0.0624575 0.0555215 0.0555215 0.0485843 0.0485843 0.0416458 0.0416458 0.0347064 0.0347064 0.0277661 0.0277661 0.0208252 0.0208252 0.0138837 0.0138837 0.00694195 0.00694195 -4.89633e-13 -4.89633e-13 -0.00694195 -0.00694195 -0.0138837 -0.0138837 -0.0208252 -0.0208252 -0.0277661 -0.0277661 -0.0347064 -0.0347064 -0.0416458 -0.0416458 -0.0485843 -0.0485843 -0.0555215 -0.0555215 -0.0624575 -0.0624575 -0.0693919 -0.0693919 -0.0763246 -0.0763246 -0.0832556 -0.0832556 -0.0901845 -0.0901845 -0.0971112 -0.0971112 -0.104036 -0.104036 -0.110957 -0.110957 -0.117877 -0.117877 -0.124793 -0.124793 -0.131706 -0.131706 -0.138617 -0.138617 -0.145523 -0.145523 -0.152427 -0.152427 -0.159326 -0.159326 -0.166222 -0.166222 -0.173114 -0.173114 -0.180002 -0.180002 -0.186885 -0.186885 -0.193764 -0.193764 -0.200638 -0.200638 -0.207507 -0.207507 -0.214372 -0.214372 -0.221231 -0.221231 -0.228085 -0.228085 -0.234933 -0.234933 -0.241776 -0.241776 -0.248612 -0.248612 -0.255443 -0.255443 -0.262268 -0.262268 -0.269086 -0.269086 -0.275898 -0.275898 -0.282704 -0.282704 -0.289502 -0.289502 -0.296293 -0.296293 -0.303078 -0.303078 -0.309855 -0.309855 -0.316624 -0.316624 -0.323386 -0.323386 -0.33014 -0.33014 -0.336886 -0.336886 -0.343624 -0.343624 -0.350354 -0.350354 -0.357076 -0.357076 -0.363788 -0.363788 -0.370492 -0.370492 -0.377187 -0.377187 -0.383873 -0.383873 -0.39055 -0.39055 -0.397217 -0.397217 -0.403875 -0.403875 -0.410523 -0.410523 -0.417161 -0.417161 -0.423789 -0.423789 -0.430407 -0.430407 -0.437014 -0.437014 -0.443611 -0.443611 -0.450197 -0.450197 -0.456773 -0.456773 -0.463337 -0.463337 -0.46989 -0.46989 -0.476432 -0.476432 -0.482963 -0.482963 -0.489481 -0.489481 -0.495988 -0.495988 -0.502483 -0.502483 -0.508966 -0.508966 -0.515437 -0.515437 -0.521895 -0.521895 -0.528341 -0.528341 -0.534774 -0.534774 -0.541194 -0.541194 -0.547601 -0.547601 -0.553995 -0.553995 -0.560375 -0.560375 -0.566742 -0.566742 -0.573095 -0.573095 -0.579435 -0.579435 -0.58576 -0.58576 -0.592072 -0.592072 -0.598369 -0.598369 -0.604652 -0.604652 -0.61092 -0.61092 -0.617173 -0.617173 -0.623412 -0.623412 -0.629636 -0.629636 -0.635844 -0.635844 -0.642037 -0.642037 -0.648215 -0.648215 -0.654377 -0.654377 -0.660523 -0.660523 -0.666653 -0.666653 -0.672767 -0.672767 -0.678865 -0.678865 -0.684947 -0.684947 -0.691012 -0.691012 -0.697061 -0.697061 -0.703092 -0.703092 -0.709107 -0.709107 -0.715105 -0.715105 -0.721085 -0.721085 -0.727048 -0.727048 -0.732994 -0.732994 -0.738922 -0.738922 -0.744832 -0.744832 -0.750724 -0.750724 -0.756598 -0.756598 -0.762454 -0.762454 -0.768291 -0.768291 -0.77411 -0.77411 -0.77991 -0.77991 -0.785692 -0.785692 -0.791454 -0.791454 -0.797198 -0.797198 -0.802922 -0.802922 -0.808627 -0.808627 -0.814312 -0.814312 -0.819978 -0.819978 -0.825624 -0.825624 -0.831251 -0.831251 -0.836857 -0.836857 -0.842443 -0.842443 -0.848008 -0.848008 -0.853554 -0.853554 -0.859078 -0.859078 -0.864582 -0.864582 -0.870065 -0.870065 -0.875528 -0.875528 -0.880969 -0.880969 -0.886388 -0.886388 -0.891787 -0.891787 -0.897164 -0.897164 -0.902519 -0.902519 -0.907853 -0.907853 -0.913165 -0.913165 -0.918455 -0.918455 -0.923722 -0.923722 -0.928968 -0.928968 -0.934191 -0.934191 -0.939391 -0.939391 -0.944569 -0.944569 -0.949724 -0.949724 -0.954856 -0.954856 -0.959965 -0.959965 -0.965051 -0.965051 -0.970114 -0.970114 -0.975154 -0.975154 -0.98017 -0.98017 -0.985162 -0.985162 -0.99013 -0.99013 -0.995075 -0.995075 -0.999996 -0.999996 -1.00489 -1.00489 -1.00977 -1.00977 -1.01461 -1.01461 -1.01944 -1.01944 -1.02424 -1.02424 -1.02901 -1.02901 -1.03376 -1.03376 -1.03848 -1.03848 -1.04318 -1.04318 -1.04786 -1.04786 -1.05251 -1.05251 -1.05713 -1.05713 -1.06173 -1.06173 -1.0663 -1.0663 -1.07085 -1.07085 -1.07537 -1.07537 -1.07987 -1.07987 -1.08434 -1.08434 -1.08878 -1.08878 -1.0932 -1.0932 -1.09759 -1.09759 -1.10195 -1.10195 -1.10629 -1.10629 -1.1106 -1.1106 -1.11489 -1.11489 -1.11914 -1.11914 -1.12337 -1.12337 -1.12758 -1.12758 -1.13175 -1.13175 -1.1359 -1.1359 -1.14002 -1.14002 -1.14412 -1.14412 -1.14818 -1.14818 -1.15222 -1.15222 -1.15623 -1.15623 -1.16022 -1.16022 -1.16417 -1.16417 -1.1681 -1.1681 -1.172 -1.172 -1.17587 -1.17587 -1.17971 -1.17971 -1.18353 -1.18353 -1.18731 -1.18731 -1.19107 -1.19107 -1.1948 -1.1948 -1.1985 -1.1985 -1.20217 -1.20217 -1.20581 -1.20581 -1.20942 -1.20942 -1.21301 -1.21301 -1.21656 -1.21656 -1.22009 -1.22009 -1.22358 -1.22358 -1.22705 -1.22705 -1.23048 -1.23048 -1.23389 -1.23389 -1.23727 -1.23727 -1.24062 -1.24062 -1.24393 -1.24393 -1.24722 -1.24722 -1.25048 -1.25048 -1.2537 -1.2537 -1.2569 -1.2569 -1.26007 -1.26007 -1.2632 -1.2632 -1.26631 -1.26631 -1.26939 -1.26939 -1.27243 -1.27243 -1.27545 -1.27545 -1.27843 -1.27843 -1.28138 -1.28138 -1.2843 -1.2843 -1.28719 -1.28719 -1.29005 -1.29005 -1.29288 -1.29288 -1.29568 -1.29568 -1.29845 -1.29845 -1.30118 -1.30118 -1.30389 -1.30389 -1.30656 -1.30656 -1.3092 -1.3092 -1.31181 -1.31181 -1.31439 -1.31439 -1.31693 -1.31693 -1.31945 -1.31945 -1.32193 -1.32193 -1.32438 -1.32438 -1.3268 -1.3268 -1.32918 -1.32918 -1.33154 -1.33154 -1.33386 -1.33386 -1.33615 -1.33615 -1.33841 -1.33841 -1.34064 -1.34064 -1.34283 -1.34283 -1.34499 -1.34499 -1.34712 -1.34712 -1.34922 -1.34922 -1.35128 -1.35128 -1.35331 -1.35331 -1.35531 -1.35531 -1.35728 -1.35728 -1.35921 -1.35921 -1.36111 -1.36111 -1.36298 -1.36298 -1.36481 -1.36481 -1.36662 -1.36662 -1.36839 -1.36839 -1.37012 -1.37012 -1.37183 -1.37183 -1.3735 -1.3735 -1.37513 -1.37513 -1.37674 -1.37674 -1.37831 -1.37831 -1.37985 -1.37985 -1.38135 -1.38135 -1.38282 -1.38282 -1.38426 -1.38426 -1.38566 -1.38566 -1.38703 -1.38703 -1.38837 -1.38837 -1.38968 -1.38968 -1.39095 -1.39095 -1.39218 -1.39218 -1.39339 -1.39339 -1.39456 -1.39456 -1.39569 -1.39569 -1.3968 -1.3968 -1.39787 -1.39787 -1.3989 -1.3989 -1.3999 -1.3999 -1.40087 -1.40087 -1.40181 -1.40181 -1.40271 -1.40271 -1.40357 -1.40357 -1.40441 -1.40441 -1.4052 -1.4052 -1.40597 -1.40597 -1.4067 -1.4067 -1.4074 -1.4074 -1.40806 -1.40806 -1.40869 -1.40869 -1.40929 -1.40929 -1.40985 -1.40985 -1.41038 -1.41038 -1.41087 -1.41087 -1.41133 -1.41133 -1.41176 -1.41176 -1.41215 -1.41215 -1.4125 -1.4125 -1.41283 -1.41283 -1.41312 -1.41312 -1.41337 -1.41337 -1.41359 -1.41359 -1.41378 -1.41378 -1.41394 -1.41394 -1.41405 -1.41405 -1.41414 -1.41414 -1.41419 -1.41419 -1.41421 -1.41421 -1.41419 -1.41419 -1.41414 -1.41414 -1.41405 -1.41405 -1.41394 -1.41394 -1.41378 -1.41378 -1.41359 -1.41359 -1.41337 -1.41337 -1.41312 -1.41312 -1.41283 -1.41283 -1.4125 -1.4125 -1.41215 -1.41215 -1.41176 -1.41176 -1.41133 -1.41133 -1.41087 -1.41087 -1.41038 -1.41038 -1.40985 -1.40985 -1.40929 -1.40929 -1.40869 -1.40869 -1.40806 -1.40806 -1.4074 -1.4074 -1.4067 -1.4067 -1.40597 -1.40597 -1.4052 -1.4052 -1.40441 -1.40441 -1.40357 -1.40357 -1.40271 -1.40271 -1.40181 -1.40181 -1.40087 -1.40087 -1.3999 -1.3999 -1.3989 -1.3989 -1.39787 -1.39787 -1.3968 -1.3968 -1.39569 -1.39569 -1.39456 -1.39456 -1.39339 -1.39339 -1.39218 -1.39218 -1.39095 -1.39095 -1.38968 -1.38968 -1.38837 -1.38837 -1.38703 -1.38703 -1.38566 -1.38566 -1.38426 -1.38426 -1.38282 -1.38282 -1.38135 -1.38135 -1.37985 -1.37985 -1.37831 -1.37831 -1.37674 -1.37674 -1.37513 -1.37513 -1.3735 -1.3735 -1.37183 -1.37183 -1.37012 -1.37012 -1.36839 -1.36839 -1.36662 -1.36662 -1.36481 -1.36481 -1.36298 -1.36298 -1.36111 -1.36111 -1.35921 -1.35921 -1.35728 -1.35728 -1.35531 -1.35531 -1.35331 -1.35331 -1.35128 -1.35128 -1.34922 -1.34922 -1.34712 -1.34712 -1.34499 -1.34499 -1.34283 -1.34283 -1.34064 -1.34064 -1.33841 -1.33841 -1.33615 -1.33615 -1.33386 -1.33386 -1.33154 -1.33154 -1.32918 -1.32918 -1.3268 -1.3268 -1.32438 -1.32438 -1.32193 -1.32193 -1.31945 -1.31945 -1.31693 -1.31693 -1.31439 -1.31439 -1.31181 -1.31181 -1.3092 -1.3092 -1.30656 -1.30656 -1.30389 -1.30389 -1.30118 -1.30118 -1.29845 -1.29845 -1.29568 -1.29568 -1.29288 -1.29288 -1.29005 -1.29005 -1.28719 -1.28719 -1.2843 -1.2843 -1.28138 -1.28138 -1.27843 -1.27843 -1.27545 -1.27545 -1.27243 -1.27243 -1.26939 -1.26939 -1.26631 -1.26631 -1.2632 -1.2632 -1.26007 -1.26007 -1.2569 -1.2569 -1.2537 -1.2537 -1.25048 -1.25048 -1.24722 -1.24722 -1.24393 -1.24393 -1.24062 -1.24062 -1.23727 -1.23727 -1.23389 -1.23389 -1.23048 -1.23048 -1.22705 -1.22705 -1.22358 -1.22358 -1.22009 -1.22009 -1.21656 -1.21656 -1.21301 -1.21301 -1.20942 -1.20942 -1.20581 -1.20581 -1.20217 -1.20217 -1.1985 -1.1985 -1.1948 -1.1948 -1.19107 -1.19107 -1.18731 -1.18731 -1.18353 -1.18353 -1.17971 -1.17971 -1.17587 -1.17587 -1.172 -1.172 -1.1681 -1.1681 -1.16417 -1.16417 -1.16022 -1.16022 -1.15623 -1.15623 -1.15222 -1.15222 -1.14818 -1.14818 -1.14412 -1.14412 -1.14002 -1.14002 -1.1359 -1.1359 -1.13175 -1.13175 -1.12758 -1.12758 -1.12337 -1.12337 -1.11914 -1.11914 -1.11489 -1.11489 -1.1106 -1.1106 -1.10629 -1.10629 -1.10195 -1.10195 -1.09759 -1.09759 -1.0932 -1.0932 -1.08878 -1.08878 -1.08434 -1.08434 -1.07987 -1.07987 -1.07537 -1.07537 -1.07085 -1.07085 -1.0663 -1.0663 -1.06173 -1.06173 -1.05713 -1.05713 -1.05251 -1.05251 -1.04786 -1.04786 -1.04318 -1.04318 -1.03848 -1.03848 -1.03376 -1.03376 -1.02901 -1.02901 -1.02424 -1.02424 -1.01944 -1.01944 -1.01461 -1.01461 -1.00977 -1.00977 -1.00489 -1.00489 -0.999996 -0.999996 -0.995075 -0.995075 -0.99013 -0.99013 -0.985162 -0.985162 -0.98017 -0.98017 -0.975154 -0.975154 -0.970114 -0.970114 -0.965051 -0.965051 -0.959965 -0.959965 -0.954856 -0.954856 -0.949724 -0.949724 -0.944569 -0.944569 -0.939391 -0.939391 -0.934191 -0.934191 -0.928968 -0.928968 -0.923722 -0.923722 -0.918455 -0.918455 -0.913165 -0.913165 -0.907853 -0.907853 -0.902519 -0.902519 -0.897164 -0.897164 -0.891787 -0.891787 -0.886388 -0.886388 -0.880969 -0.880969 -0.875528 -0.875528 -0.870065 -0.870065 -0.864582 -0.864582 -0.859078 -0.859078 -0.853554 -0.853554 -0.848008 -0.848008 -0.842443 -0.842443 -0.836857 -0.836857 -0.831251 -0.831251 -0.825624 -0.825624 -0.819978 -0.819978 -0.814312 -0.814312 -0.808627 -0.808627 -0.802922 -0.802922 -0.797198 -0.797198 -0.791454 -0.791454 -0.785692 -0.785692 -0.77991 -0.77991 -0.77411 -0.77411 -0.768291 -0.768291 -0.762454 -0.762454 -0.756598 -0.756598 -0.750724 -0.750724 -0.744832 -0.744832 -0.738922 -0.738922 -0.732994 -0.732994 -0.727048 -0.727048 -0.721085 -0.721085 -0.715105 -0.715105 -0.709107 -0.709107 -0.703092 -0.703092 -0.697061 -0.697061 -0.691012 -0.691012 -0.684947 -0.684947 -0.678865 -0.678865 -0.672767 -0.672767 -0.666653 -0.666653 -0.660523 -0.660523 -0.654377 -0.654377 -0.648215 -0.648215 -0.642037 -0.642037 -0.635844 -0.635844 -0.629636 -0.629636 -0.623412 -0.623412 -0.617173 -0.617173 -0.61092 -0.61092 -0.604652 -0.604652 -0.598369 -0.598369 -0.592072 -0.592072 -0.58576 -0.58576 -0.579435 -0.579435 -0.573095 -0.573095 -0.566742 -0.566742 -0.560375 -0.560375 -0.553995 -0.553995 -0.547601 -0.547601 -0.541194 -0.541194 -0.534774 -0.534774 -0.528341 -0.528341 -0.521895 -0.521895 -0.515437 -0.515437 -0.508966 -0.508966 -0.502483 -0.502483 -0.495988 -0.495988 -0.489481 -0.489481 -0.482963 -0.482963 -0.476432 -0.476432 -0.46989 -0.46989 -0.463337 -0.463337 -0.456773 -0.456773 -0.450197 -0.450197 -0.443611 -0.443611 -0.437014 -0.437014 -0.430407 -0.430407 -0.423789 -0.423789 -0.417161 -0.417161 -0.410523 -0.410523 -0.403875 -0.403875 -0.397217 -0.397217 -0.39055 -0.39055 -0.383873 -0.383873 -0.377187 -0.377187 -0.370492 -0.370492 -0.363788 -0.363788 -0.357076 -0.357076 -0.350354 -0.350354 -0.343624 -0.343624 -0.336886 -0.336886 -0.33014 -0.33014 -0.323386 -0.323386 -0.316624 -0.316624 -0.309855 -0.309855 -0.303078 -0.303078 -0.296293 -0.296293 -0.289502 -0.289502 -0.282704 -0.282704 -0.275898 -0.275898 -0.269086 -0.269086 -0.262268 -0.262268 -0.255443 -0.255443 -0.248612 -0.248612 -0.241776 -0.241776 -0.234933 -0.234933 -0.228085 -0.228085 -0.221231 -0.221231 -0.214372 -0.214372 -0.207507 -0.207507 -0.200638 -0.200638 -0.193764 -0.193764 -0.186885 -0.186885 -0.180002 -0.180002 -0.173114 -0.173114 -0.166222 -0.166222 -0.159326 -0.159326 -0.152427 -0.152427 -0.145523 -0.145523 -0.138617 -0.138617 -0.131706 -0.131706 -0.124793 -0.124793 -0.117877 -0.117877 -0.110957 -0.110957 -0.104036 -0.104036 -0.0971112 -0.0971112 -0.0901845 -0.0901845 -0.0832556 -0.0832556 -0.0763246 -0.0763246 -0.0693919 -0.0693919 -0.0624575 -0.0624575 -0.0555215 -0.0555215 -0.0485843 -0.0485843 -0.0416458 -0.0416458 -0.0347064 -0.0347064 -0.0277661 -0.02776