# vtk DataFile Version 3.0
#This file was generated by the deal.II library on 2020/7/10 at 23:10:10
ASCII
DATASET UNSTRUCTURED_GRID

POINTS 1280 double
0 1 0
0.00981732 0.999952 0
0.00981732 0.999952 0
0.0196337 0.999807 0
0.0196337 0.999807 0
0.0294482 0.999566 0
0.0294482 0.999566 0
0.0392598 0.999229 0
0.0392598 0.999229 0
0.0490677 0.998795 0
0.0490677 0.998795 0
0.0588708 0.998266 0
0.0588708 0.998266 0
0.0686683 0.99764 0
0.0686683 0.99764 0
0.0784591 0.996917 0
0.0784591 0.996917 0
0.0882424 0.996099 0
0.0882424 0.996099 0
0.0980171 0.995185 0
0.0980171 0.995185 0
0.107782 0.994175 0
0.107782 0.994175 0
0.117537 0.993068 0
0.117537 0.993068 0
0.127281 0.991867 0
0.127281 0.991867 0
0.137012 0.990569 0
0.137012 0.990569 0
0.14673 0.989177 0
0.14673 0.989177 0
0.156434 0.987688 0
0.156434 0.987688 0
0.166123 0.986105 0
0.166123 0.986105 0
0.175796 0.984427 0
0.175796 0.984427 0
0.185452 0.982653 0
0.185452 0.982653 0
0.19509 0.980785 0
0.19509 0.980785 0
0.20471 0.978823 0
0.20471 0.978823 0
0.214309 0.976766 0
0.214309 0.976766 0
0.223888 0.974615 0
0.223888 0.974615 0
0.233445 0.97237 0
0.233445 0.97237 0
0.24298 0.970031 0
0.24298 0.970031 0
0.252492 0.967599 0
0.252492 0.967599 0
0.261979 0.965074 0
0.261979 0.965074 0
0.27144 0.962455 0
0.27144 0.962455 0
0.280876 0.959744 0
0.280876 0.959744 0
0.290285 0.95694 0
0.290285 0.95694 0
0.299665 0.954044 0
0.299665 0.954044 0
0.309017 0.951057 0
0.309017 0.951057 0
0.318339 0.947977 0
0.318339 0.947977 0
0.32763 0.944806 0
0.32763 0.944806 0
0.33689 0.941544 0
0.33689 0.941544 0
0.346117 0.938191 0
0.346117 0.938191 0
0.355311 0.934748 0
0.355311 0.934748 0
0.36447 0.931215 0
0.36447 0.931215 0
0.373595 0.927592 0
0.373595 0.927592 0
0.382683 0.92388 0
0.382683 0.92388 0
0.391735 0.920078 0
0.391735 0.920078 0
0.400749 0.916188 0
0.400749 0.916188 0
0.409724 0.91221 0
0.409724 0.91221 0
0.41866 0.908143 0
0.41866 0.908143 0
0.427555 0.903989 0
0.427555 0.903989 0
0.436409 0.899748 0
0.436409 0.899748 0
0.445221 0.895421 0
0.445221 0.895421 0
0.45399 0.891007 0
0.45399 0.891007 0
0.462716 0.886507 0
0.462716 0.886507 0
0.471397 0.881921 0
0.471397 0.881921 0
0.480032 0.877251 0
0.480032 0.877251 0
0.488621 0.872496 0
0.488621 0.872496 0
0.497163 0.867657 0
0.497163 0.867657 0
0.505657 0.862734 0
0.505657 0.862734 0
0.514103 0.857729 0
0.514103 0.857729 0
0.522499 0.85264 0
0.522499 0.85264 0
0.530844 0.84747 0
0.530844 0.84747 0
0.539138 0.842217 0
0.539138 0.842217 0
0.547381 0.836884 0
0.547381 0.836884 0
0.55557 0.83147 0
0.55557 0.83147 0
0.563706 0.825975 0
0.563706 0.825975 0
0.571788 0.820401 0
0.571788 0.820401 0
0.579815 0.814748 0
0.579815 0.814748 0
0.587785 0.809017 0
0.587785 0.809017 0
0.595699 0.803208 0
0.595699 0.803208 0
0.603556 0.797321 0
0.603556 0.797321 0
0.611354 0.791357 0
0.611354 0.791357 0
0.619094 0.785317 0
0.619094 0.785317 0
0.626774 0.779201 0
0.626774 0.779201 0
0.634393 0.77301 0
0.634393 0.77301 0
0.641952 0.766745 0
0.641952 0.766745 0
0.649448 0.760406 0
0.649448 0.760406 0
0.656882 0.753993 0
0.656882 0.753993 0
0.664252 0.747508 0
0.664252 0.747508 0
0.671559 0.740951 0
0.671559 0.740951 0
0.678801 0.734323 0
0.678801 0.734323 0
0.685977 0.727623 0
0.685977 0.727623 0
0.693087 0.720854 0
0.693087 0.720854 0
0.700131 0.714015 0
0.700131 0.714015 0
0.707107 0.707107 0
0.707107 0.707107 0
0.714015 0.700131 0
0.714015 0.700131 0
0.720854 0.693087 0
0.720854 0.693087 0
0.727623 0.685977 0
0.727623 0.685977 0
0.734323 0.678801 0
0.734323 0.678801 0
0.740951 0.671559 0
0.740951 0.671559 0
0.747508 0.664252 0
0.747508 0.664252 0
0.753993 0.656882 0
0.753993 0.656882 0
0.760406 0.649448 0
0.760406 0.649448 0
0.766745 0.641952 0
0.766745 0.641952 0
0.77301 0.634393 0
0.77301 0.634393 0
0.779201 0.626774 0
0.779201 0.626774 0
0.785317 0.619094 0
0.785317 0.619094 0
0.791357 0.611354 0
0.791357 0.611354 0
0.797321 0.603556 0
0.797321 0.603556 0
0.803208 0.595699 0
0.803208 0.595699 0
0.809017 0.587785 0
0.809017 0.587785 0
0.814748 0.579815 0
0.814748 0.579815 0
0.820401 0.571788 0
0.820401 0.571788 0
0.825975 0.563706 0
0.825975 0.563706 0
0.83147 0.55557 0
0.83147 0.55557 0
0.836884 0.547381 0
0.836884 0.547381 0
0.842217 0.539138 0
0.842217 0.539138 0
0.84747 0.530844 0
0.84747 0.530844 0
0.85264 0.522499 0
0.85264 0.522499 0
0.857729 0.514103 0
0.857729 0.514103 0
0.862734 0.505657 0
0.862734 0.505657 0
0.867657 0.497163 0
0.867657 0.497163 0
0.872496 0.488621 0
0.872496 0.488621 0
0.877251 0.480032 0
0.877251 0.480032 0
0.881921 0.471397 0
0.881921 0.471397 0
0.886507 0.462716 0
0.886507 0.462716 0
0.891007 0.45399 0
0.891007 0.45399 0
0.895421 0.445221 0
0.895421 0.445221 0
0.899748 0.436409 0
0.899748 0.436409 0
0.903989 0.427555 0
0.903989 0.427555 0
0.908143 0.41866 0
0.908143 0.41866 0
0.91221 0.409724 0
0.91221 0.409724 0
0.916188 0.400749 0
0.916188 0.400749 0
0.920078 0.391735 0
0.920078 0.391735 0
0.92388 0.382683 0
0.92388 0.382683 0
0.927592 0.373595 0
0.927592 0.373595 0
0.931215 0.36447 0
0.931215 0.36447 0
0.934748 0.355311 0
0.934748 0.355311 0
0.938191 0.346117 0
0.938191 0.346117 0
0.941544 0.33689 0
0.941544 0.33689 0
0.944806 0.32763 0
0.944806 0.32763 0
0.947977 0.318339 0
0.947977 0.318339 0
0.951057 0.309017 0
0.951057 0.309017 0
0.954044 0.299665 0
0.954044 0.299665 0
0.95694 0.290285 0
0.95694 0.290285 0
0.959744 0.280876 0
0.959744 0.280876 0
0.962455 0.27144 0
0.962455 0.27144 0
0.965074 0.261979 0
0.965074 0.261979 0
0.967599 0.252492 0
0.967599 0.252492 0
0.970031 0.24298 0
0.970031 0.24298 0
0.97237 0.233445 0
0.97237 0.233445 0
0.974615 0.223888 0
0.974615 0.223888 0
0.976766 0.214309 0
0.976766 0.214309 0
0.978823 0.20471 0
0.978823 0.20471 0
0.980785 0.19509 0
0.980785 0.19509 0
0.982653 0.185452 0
0.982653 0.185452 0
0.984427 0.175796 0
0.984427 0.175796 0
0.986105 0.166123 0
0.986105 0.166123 0
0.987688 0.156434 0
0.987688 0.156434 0
0.989177 0.14673 0
0.989177 0.14673 0
0.990569 0.137012 0
0.990569 0.137012 0
0.991867 0.127281 0
0.991867 0.127281 0
0.993068 0.117537 0
0.993068 0.117537 0
0.994175 0.107782 0
0.994175 0.107782 0
0.995185 0.0980171 0
0.995185 0.0980171 0
0.996099 0.0882424 0
0.996099 0.0882424 0
0.996917 0.0784591 0
0.996917 0.0784591 0
0.99764 0.0686683 0
0.99764 0.0686683 0
0.998266 0.0588708 0
0.998266 0.0588708 0
0.998795 0.0490677 0
0.998795 0.0490677 0
0.999229 0.0392598 0
0.999229 0.0392598 0
0.999566 0.0294482 0
0.999566 0.0294482 0
0.999807 0.0196337 0
0.999807 0.0196337 0
0.999952 0.00981732 0
0.999952 0.00981732 0
1 2.77556e-16 0
1 2.77556e-16 0
0.999952 -0.00981732 0
0.999952 -0.00981732 0
0.999807 -0.0196337 0
0.999807 -0.0196337 0
0.999566 -0.0294482 0
0.999566 -0.0294482 0
0.999229 -0.0392598 0
0.999229 -0.0392598 0
0.998795 -0.0490677 0
0.998795 -0.0490677 0
0.998266 -0.0588708 0
0.998266 -0.0588708 0
0.99764 -0.0686683 0
0.99764 -0.0686683 0
0.996917 -0.0784591 0
0.996917 -0.0784591 0
0.996099 -0.0882424 0
0.996099 -0.0882424 0
0.995185 -0.0980171 0
0.995185 -0.0980171 0
0.994175 -0.107782 0
0.994175 -0.107782 0
0.993068 -0.117537 0
0.993068 -0.117537 0
0.991867 -0.127281 0
0.991867 -0.127281 0
0.990569 -0.137012 0
0.990569 -0.137012 0
0.989177 -0.14673 0
0.989177 -0.14673 0
0.987688 -0.156434 0
0.987688 -0.156434 0
0.986105 -0.166123 0
0.986105 -0.166123 0
0.984427 -0.175796 0
0.984427 -0.175796 0
0.982653 -0.185452 0
0.982653 -0.185452 0
0.980785 -0.19509 0
0.980785 -0.19509 0
0.978823 -0.20471 0
0.978823 -0.20471 0
0.976766 -0.214309 0
0.976766 -0.214309 0
0.974615 -0.223888 0
0.974615 -0.223888 0
0.97237 -0.233445 0
0.97237 -0.233445 0
0.970031 -0.24298 0
0.970031 -0.24298 0
0.967599 -0.252492 0
0.967599 -0.252492 0
0.965074 -0.261979 0
0.965074 -0.261979 0
0.962455 -0.27144 0
0.962455 -0.27144 0
0.959744 -0.280876 0
0.959744 -0.280876 0
0.95694 -0.290285 0
0.95694 -0.290285 0
0.954044 -0.299665 0
0.954044 -0.299665 0
0.951057 -0.309017 0
0.951057 -0.309017 0
0.947977 -0.318339 0
0.947977 -0.318339 0
0.944806 -0.32763 0
0.944806 -0.32763 0
0.941544 -0.33689 0
0.941544 -0.33689 0
0.938191 -0.346117 0
0.938191 -0.346117 0
0.934748 -0.355311 0
0.934748 -0.355311 0
0.931215 -0.36447 0
0.931215 -0.36447 0
0.927592 -0.373595 0
0.927592 -0.373595 0
0.92388 -0.382683 0
0.92388 -0.382683 0
0.920078 -0.391735 0
0.920078 -0.391735 0
0.916188 -0.400749 0
0.916188 -0.400749 0
0.91221 -0.409724 0
0.91221 -0.409724 0
0.908143 -0.41866 0
0.908143 -0.41866 0
0.903989 -0.427555 0
0.903989 -0.427555 0
0.899748 -0.436409 0
0.899748 -0.436409 0
0.895421 -0.445221 0
0.895421 -0.445221 0
0.891007 -0.45399 0
0.891007 -0.45399 0
0.886507 -0.462716 0
0.886507 -0.462716 0
0.881921 -0.471397 0
0.881921 -0.471397 0
0.877251 -0.480032 0
0.877251 -0.480032 0
0.872496 -0.488621 0
0.872496 -0.488621 0
0.867657 -0.497163 0
0.867657 -0.497163 0
0.862734 -0.505657 0
0.862734 -0.505657 0
0.857729 -0.514103 0
0.857729 -0.514103 0
0.85264 -0.522499 0
0.85264 -0.522499 0
0.84747 -0.530844 0
0.84747 -0.530844 0
0.842217 -0.539138 0
0.842217 -0.539138 0
0.836884 -0.547381 0
0.836884 -0.547381 0
0.83147 -0.55557 0
0.83147 -0.55557 0
0.825975 -0.563706 0
0.825975 -0.563706 0
0.820401 -0.571788 0
0.820401 -0.571788 0
0.814748 -0.579815 0
0.814748 -0.579815 0
0.809017 -0.587785 0
0.809017 -0.587785 0
0.803208 -0.595699 0
0.803208 -0.595699 0
0.797321 -0.603556 0
0.797321 -0.603556 0
0.791357 -0.611354 0
0.791357 -0.611354 0
0.785317 -0.619094 0
0.785317 -0.619094 0
0.779201 -0.626774 0
0.779201 -0.626774 0
0.77301 -0.634393 0
0.77301 -0.634393 0
0.766745 -0.641952 0
0.766745 -0.641952 0
0.760406 -0.649448 0
0.760406 -0.649448 0
0.753993 -0.656882 0
0.753993 -0.656882 0
0.747508 -0.664252 0
0.747508 -0.664252 0
0.740951 -0.671559 0
0.740951 -0.671559 0
0.734323 -0.678801 0
0.734323 -0.678801 0
0.727623 -0.685977 0
0.727623 -0.685977 0
0.720854 -0.693087 0
0.720854 -0.693087 0
0.714015 -0.700131 0
0.714015 -0.700131 0
0.707107 -0.707107 0
0.707107 -0.707107 0
0.700131 -0.714015 0
0.700131 -0.714015 0
0.693087 -0.720854 0
0.693087 -0.720854 0
0.685977 -0.727623 0
0.685977 -0.727623 0
[...]
POINT_DATA 1280
SCALARS phi double 1
LOOKUP_TABLE default
0.999984 1.00975 1.00975 1.01942 1.01942 1.029 1.029 1.03847 1.03847 1.04785 1.04785 1.05712 1.05712 1.06629 1.06629 1.07536 1.07536 1.08432 1.08432 1.09318 1.09318 1.10194 1.10194 1.11059 1.11059 1.11913 1.11913 1.12756 1.12756 1.13589 1.13589 1.1441 1.1441 1.15221 1.15221 1.1602 1.1602 1.16809 1.16809 1.17586 1.17586 1.18351 1.18351 1.19106 1.19106 1.19848 1.19848 1.2058 1.2058 1.21299 1.21299 1.22007 1.22007 1.22703 1.22703 1.23388 1.23388 1.2406 1.2406 1.2472 1.2472 1.25369 1.25369 1.26005 1.26005 1.2663 1.2663 1.27242 1.27242 1.27841 1.27841 1.28429 1.28429 1.29004 1.29004 1.29566 1.29566 1.30117 1.30117 1.30654 1.30654 1.31179 1.31179 1.31692 1.31692 1.32191 1.32191 1.32678 1.32678 1.33152 1.33152 1.33614 1.33614 1.34062 1.34062 1.34498 1.34498 1.3492 1.3492 1.3533 1.3533 1.35726 1.35726 1.3611 1.3611 1.3648 1.3648 1.36837 1.36837 1.37181 1.37181 1.37512 1.37512 1.37829 1.37829 1.38133 1.38133 1.38424 1.38424 1.38702 1.38702 1.38966 1.38966 1.39217 1.39217 1.39454 1.39454 1.39678 1.39678 1.39888 1.39888 1.40085 1.40085 1.40269 1.40269 1.40439 1.40439 1.40595 1.40595 1.40738 1.40738 1.40867 1.40867 1.40983 1.40983 1.41085 1.41085 1.41174 1.41174 1.41249 1.41249 1.4131 1.4131 1.41358 1.41358 1.41392 1.41392 1.41412 1.41412 1.41419 1.41419 1.41412 1.41412 1.41392 1.41392 1.41358 1.41358 1.4131 1.4131 1.41249 1.41249 1.41174 1.41174 1.41085 1.41085 1.40983 1.40983 1.40867 1.40867 1.40738 1.40738 1.40595 1.40595 1.40439 1.40439 1.40269 1.40269 1.40085 1.40085 1.39888 1.39888 1.39678 1.39678 1.39454 1.39454 1.39217 1.39217 1.38966 1.38966 1.38702 1.38702 1.38424 1.38424 1.38133 1.38133 1.37829 1.37829 1.37512 1.37512 1.37181 1.37181 1.36837 1.36837 1.3648 1.3648 1.3611 1.3611 1.35726 1.35726 1.3533 1.3533 1.3492 1.3492 1.34498 1.34498 1.34062 1.34062 1.33614 1.33614 1.33152 1.33152 1.32678 1.32678 1.32191 1.32191 1.31692 1.31692 1.31179 1.31179 1.30654 1.30654 1.30117 1.30117 1.29566 1.29566 1.29004 1.29004 1.28429 1.28429 1.27841 1.27841 1.27242 1.27242 1.2663 1.2663 1.26005 1.26005 1.25369 1.25369 1.2472 1.2472 1.2406 1.2406 1.23388 1.23388 1.22703 1.22703 1.22007 1.22007 1.21299 1.21299 1.2058 1.2058 1.19848 1.19848 1.19106 1.19106 1.18351 1.18351 1.17586 1.17586 1.16809 1.16809 1.1602 1.1602 1.15221 1.15221 1.1441 1.1441 1.13589 1.13589 1.12756 1.12756 1.11913 1.11913 1.11059 1.11059 1.10194 1.10194 1.09318 1.09318 1.08432 1.08432 1.07536 1.07536 1.06629 1.06629 1.05712 1.05712 1.04785 1.04785 1.03847 1.03847 1.029 1.029 1.01942 1.01942 1.00975 1.00975 0.999984 0.999984 0.990119 0.990119 0.980158 0.980158 0.970102 0.970102 0.959954 0.959954 0.949712 0.949712 0.93938 0.93938 0.928956 0.928956 0.918443 0.918443 0.907842 0.907842 0.897153 0.897153 0.886378 0.886378 0.875517 0.875517 0.864572 0.864572 0.853543 0.853543 0.842432 0.842432 0.83124 0.83124 0.819968 0.819968 0.808617 0.808617 0.797188 0.797188 0.785682 0.785682 0.774101 0.774101 0.762444 0.762444 0.750715 0.750715 0.738913 0.738913 0.727039 0.727039 0.715096 0.715096 0.703084 0.703084 0.691004 0.691004 0.678857 0.678857 0.666645 0.666645 0.654369 0.654369 0.642029 0.642029 0.629628 0.629628 0.617166 0.617166 0.604644 0.604644 0.592065 0.592065 0.579428 0.579428 0.566735 0.566735 0.553988 0.553988 0.541187 0.541187 0.528335 0.528335 0.515431 0.515431 0.502477 0.502477 0.489476 0.489476 0.476427 0.476427 0.463332 0.463332 0.450192 0.450192 0.437009 0.437009 0.423784 0.423784 0.410518 0.410518 0.397212 0.397212 0.383869 0.383869 0.370488 0.370488 0.357071 0.357071 0.34362 0.34362 0.330136 0.330136 0.31662 0.31662 0.303074 0.303074 0.289498 0.289498 0.275895 0.275895 0.262265 0.262265 0.248609 0.248609 0.23493 0.23493 0.221228 0.221228 0.207505 0.207505 0.193762 0.193762 0.18 0.18 0.16622 0.16622 0.152425 0.152425 0.138615 0.138615 0.124792 0.124792 0.110956 0.110956 0.09711 0.09711 0.0832545 0.0832545 0.069391 0.069391 0.0555209 0.0555209 0.0416453 0.0416453 0.0277658 0.0277658 0.0138836 0.0138836 -4.89645e-13 -4.89645e-13 -0.0138836 -0.0138836 -0.0277658 -0.0277658 -0.0416453 -0.0416453 -0.0555209 -0.0555209 -0.069391 -0.069391 -0.0832545 -0.0832545 -0.09711 -0.09711 -0.110956 -0.110956 -0.124792 -0.124792 -0.138615 -0.138615 -0.152425 -0.152425 -0.16622 -0.16622 -0.18 -0.18 -0.193762 -0.193762 -0.207505 -0.207505 -0.221228 -0.221228 -0.23493 -0.23493 -0.248609 -0.248609 -0.262265 -0.262265 -0.275895 -0.275895 -0.289498 -0.289498 -0.303074 -0.303074 -0.31662 -0.31662 -0.330136 -0.330136 -0.34362 -0.34362 -0.357071 -0.357071 -0.370488 -0.370488 -0.383869 -0.383869 -0.397212 -0.397212 -0.410518 -0.410518 -0.423784 -0.423784 -0.437009 -0.437009 -0.450192 -0.450192 -0.463332 -0.463332 -0.476427 -0.476427 -0.489476 -0.489476 -0.502477 -0.502477 -0.515431 -0.515431 -0.528335 -0.528335 -0.541187 -0.541187 -0.553988 -0.553988 -0.566735 -0.566735 -0.579428 -0.579428 -0.592065 -0.592065 -0.604644 -0.604644 -0.617166 -0.617166 -0.629628 -0.629628 -0.642029 -0.642029 -0.654369 -0.654369 -0.666645 -0.666645 -0.678857 -0.678857 -0.691004 -0.691004 -0.703084 -0.703084 -0.715096 -0.715096 -0.727039 -0.727039 -0.738913 -0.738913 -0.750715 -0.750715 -0.762444 -0.762444 -0.774101 -0.774101 -0.785682 -0.785682 -0.797188 -0.797188 -0.808617 -0.808617 -0.819968 -0.819968 -0.83124 -0.83124 -0.842432 -0.842432 -0.853543 -0.853543 -0.864572 -0.864572 -0.875517 -0.875517 -0.886378 -0.886378 -0.897153 -0.897153 -0.907842 -0.907842 -0.918443 -0.918443 -0.928956 -0.928956 -0.93938 -0.93938 -0.949712 -0.949712 -0.959954 -0.959954 -0.970102 -0.970102 -0.980158 -0.980158 -0.990119 -0.990119 -0.999984 -0.999984 -1.00975 -1.00975 -1.01942 -1.01942 -1.029 -1.029 -1.03847 -1.03847 -1.04785 -1.04785 -1.05712 -1.05712 -1.06629 -1.06629 -1.07536 -1.07536 -1.08432 -1.08432 -1.09318 -1.09318 -1.10194 -1.10194 -1.11059 -1.11059 -1.11913 -1.11913 -1.12756 -1.12756 -1.13589 -1.13589 -1.1441 -1.1441 -1.15221 -1.15221 -1.1602 -1.1602 -1.16809 -1.16809 -1.17586 -1.17586 -1.18351 -1.18351 -1.19106 -1.19106 -1.19848 -1.19848 -1.2058 -1.2058 -1.21299 -1.21299 -1.22007 -1.22007 -1.22703 -1.22703 -1.23388 -1.23388 -1.2406 -1.2406 -1.2472 -1.2472 -1.25369 -1.25369 -1.26005 -1.26005 -1.2663 -1.2663 -1.27242 -1.27242 -1.27841 -1.27841 -1.28429 -1.28429 -1.29004 -1.29004 -1.29566 -1.29566 -1.30117 -1.30117 -1.30654 -1.30654 -1.31179 -1.31179 -1.31692 -1.31692 -1.32191 -1.32191 -1.32678 -1.32678 -1.33152 -1.33152 -1.33614 -1.33614 -1.34062 -1.34062 -1.34498 -1.34498 -1.3492 -1.3492 -1.3533 -1.3533 -1.35726 -1.35726 -1.3611 -1.3611 -1.3648 -1.3648 -1.36837 -1.36837 -1.37181 -1.37181 -1.37512 -1.37512 -1.37829 -1.37829 -1.38133 -1.38133 -1.38424 -1.38424 -1.38702 -1.38702 -1.38966 -1.38966 -1.39217 -1.39217 -1.39454 -1.39454 -1.39678 -1.39678 -1.39888 -1.39888 -1.40085 -1.40085 -1.40269 -1.40269 -1.40439 -1.40439 -1.40595 -1.40595 -1.40738 -1.40738 -1.40867 -1.40867 -1.40983 -1.40983 -1.41085 -1.41085 -1.41174 -1.41174 -1.41249 -1.41249 -1.4131 -1.4131 -1.41358 -1.41358 -1.41392 -1.41392 -1.41412 -1.41412 -1.41419 -1.41419 -1.41412 -1.41412 -1.41392 -1.41392 -1.41358 -1.41358 -1.4131 -1.4131 -1.41249 -1.41249 -1.41174 -1.41174 -1.41085 -1.41085 -1.40983 -1.40983 -1.40867 -1.40867 -1.40738 -1.40738 -1.40595 -1.40595 -1.40439 -1.40439 -1.40269 -1.40269 -1.40085 -1.40085 -1.39888 -1.39888 -1.39678 -1.39678 -1.39454 -1.39454 -1.39217 -1.39217 -1.38966 -1.38966 -1.38702 -1.38702 -1.38424 -1.38424 -1.38133 -1.38133 -1.37829 -1.37829 -1.37512 -1.37512 -1.37181 -1.37181 -1.36837 -1.36837 -1.3648 -1.3648 -1.3611 -1.3611 -1.35726 -1.35726 -1.3533 -1.3533 -1.3492 -1.3492 -1.34498 -1.34498 -1.34062 -1.34062 -1.33614 -1.33614 -1.33152 -1.33152 -1.32678 -1.32678 -1.32191 -1.32191 -1.31692 -1.31692 -1.31179 -1.31179 -1.30654 -1.30654 -1.30117 -1.30117 -1.29566 -1.29566 -1.29004 -1.29004 -1.28429 -1.28429 -1.27841 -1.27841 -1.27242 -1.27242 -1.2663 -1.2663 -1.26005 -1.26005 -1.25369 -1.25369 -1.2472 -1.2472 -1.2406 -1.2406 -1.23388 -1.23388 -1.22703 -1.22703 -1.22007 -1.22007 -1.21299 -1.21299 -1.2058 -1.2058 -1.19848 -1.19848 -1.19106 -1.19106 -1.18351 -1.18351 -1.17586 -1.17586 -1.16809 -1.16809 -1.1602 -1.1602 -1.15221 -1.15221 -1.1441 -1.1441 -1.13589 -1.13589 -1.12756 -1.12756 -1.11913 -1.11913 -1.11059 -1.11059 -1.10194 -1.10194 -1.09318 -1.09318 -1.08432 -1.08432 -1.07536 -1.07536 -1.06629 -1.06629 -1.05712 -1.05712 -1.04785 -1.04785 -1.03847 -1.03847 -1.029 -1.029 -1.01942 -1.01942 -1.00975 -1.00975 -0.999984 -0.999984 -0.990119 -0.990119 -0.980158 -0.980158 -0.970102 -0.970102 -0.959954 -0.959954 -0.949712 -0.949712 -0.93938 -0.93938 -0.928956 -0.928956 -0.918443 -0.918443 -0.907842 -0.907842 -0.897153 -0.897153 -0.886378 -0.886378 -0.875517 -0.875517 -0.864572 -0.864572 -0.853543 -0.853543 -0.842432 -0.842432 -0.83124 -0.83124 -0.819968 -0.819968 -0.808617 -0.808617 -0.797188 -0.797188 -0.785682 -0.785682 -0.774101 -0.774101 -0.762444 -0.762444 -0.750715 -0.750715 -0.738913 -0.738913 -0.727039 -0.727039 -0.715096 -0.715096 -0.703084 -0.703084 -0.691004 -0.691004 -0.678857 -0.678857 -0.666645 -0.666645 -0.654369 -0.654369 -0.642029 -0.642029 -0.629628 -0.629628 -0.617166 -0.617166 -0.604644 -0.604644 -0.592065 -0.592065 -0.579428 -0.579428 -0.566735 -0.566735 -0.553988 -0.553988 -0.541187 -0.541187 -0.528335 -0.528335 -0.515431 -0.515431 -0.502477 -0.502477 -0.489476 -0.489476 -0.476427 -0.476427 -0.463332 -0.463332 -0.450192 -0.450192 -0.437009 -0.437009 -0.423784 -0.423784 -0.410518 -0.410518 -0.397212 -0.397212 -0.383869 -0.383869 -0.370488 -0.370488 -0.357071 -0.357071 -0.34362 -0.34362 -0.330136 -0.330136 -0.31662 -0.31662 -0.303074 -0.303074 -0.289498 -0.289498 -0.275895 -0.275895 -0.262265 -0.262265 -0.248609 -0.248609 -0.23493 -0.23493 -0.221228 -0.221228 -0.207505 -0.207505 -0.193762 -0.193762 -0.18 -0.18 -0.16622 -0.16622 -0.152425 -0.152425 -0.138615 -0.138615 -0.124792 -0.124792 -0.110956 -0.110956 -0.09711 -0.09711 -0.0832545 -0.0832545 -0.069391 -0.069391 -0.0555209 -0.0555209 -0.0416453 -0.0416453 -0.0277658 -0.0277658 -0.0138836 -0.0138836 4.89076e-13 4.89076e-13 0.0138836 0.0138836 0.0277658 0.0277658 0.0416453 0.0416453 0.0555209 0.0555209 0.069391 0.069391 0.0832545 0.0832545 0.09711 0.09711 0.110956 0.110956 0.124792 0.124792 0.138615 0.138615 0.152425 0.152425 0.16622 0.16622 0.18 0.18 0.193762 0.193762 0.207505 0.207505 0.221228 0.221228 0.23493 0.23493 0.248609 0.248609 0.262265 0.262265 0.275895 0.275895 0.289498 0.289498 0.303074 0.303074 0.31662 0.31662 0.330136 0.330136 0.34362 0.34362 0.357071 0.357071 0.370488 0.370488 0.383869 0.383869 0.397212 0.397212 0.410518 0.410518 0.423784 0.423784 0.437009 0.437009 0.450192 0.450192 0.463332 0.463332 0.476427 0.476427 0.489476 0.489476 0.502477 0.502477 0.515431 0.515431 0.528335 0.528335 0.541187 0.541187 0.553988 0.553988 0.566735 0.566735 0.579428 0.579428 0.592065 0.592065 0.604644 0.604644 0.617166 0.617166 0.629628 0.629628 0.642029 0.642029 0.654369 0.654369 0.666645 0.666645 0.678857 0.678857 0.691004 0.691004 0.703084 0.703084 0.715096 0.715096 0.727039 0.727039 0.738913 0.738913 0.750715 0.750715 0.762444 0.762444 0.774101 0.774101 0.785682 0.785682 0.797188 0.797188 0.808617 0.808617 0.819968 0.819968 0.83124 0.83124 0.842432 0.842432 0.853543 0.853543 0.864572 0.864572 0.875517 0.875517 0.886378 0.886378 0.897153 0.897153 0.907842 0.907842 0.918443 0.918443 0.928956 0.928956 0.93938 0.93938 0.949712 0.949712 0.959954 0.959954 0.970102 0.970102 0.980158 0.980158 0.990119 0.990119 0.999984 
SCALARS alpha double 1
LOOKUP_TABLE default