# vtk DataFile Version 3.0
#This file was generated by the deal.II library on 2020/7/10 at 23:10:08
ASCII
DATASET UNSTRUCTURED_GRID

POINTS 640 double
0 1 0
0.0196337 0.999807 0
0.0196337 0.999807 0
0.0392598 0.999229 0
0.0392598 0.999229 0
0.0588708 0.998266 0
0.0588708 0.998266 0
0.0784591 0.996917 0
0.0784591 0.996917 0
0.0980171 0.995185 0
0.0980171 0.995185 0
0.117537 0.993068 0
0.117537 0.993068 0
0.137012 0.990569 0
0.137012 0.990569 0
0.156434 0.987688 0
0.156434 0.987688 0
0.175796 0.984427 0
0.175796 0.984427 0
0.19509 0.980785 0
0.19509 0.980785 0
0.214309 0.976766 0
0.214309 0.976766 0
0.233445 0.97237 0
0.233445 0.97237 0
0.252492 0.967599 0
0.252492 0.967599 0
0.27144 0.962455 0
0.27144 0.962455 0
0.290285 0.95694 0
0.290285 0.95694 0
0.309017 0.951057 0
0.309017 0.951057 0
0.32763 0.944806 0
0.32763 0.944806 0
0.346117 0.938191 0
0.346117 0.938191 0
0.36447 0.931215 0
0.36447 0.931215 0
0.382683 0.92388 0
0.382683 0.92388 0
0.400749 0.916188 0
0.400749 0.916188 0
0.41866 0.908143 0
0.41866 0.908143 0
0.436409 0.899748 0
0.436409 0.899748 0
0.45399 0.891007 0
0.45399 0.891007 0
0.471397 0.881921 0
0.471397 0.881921 0
0.488621 0.872496 0
0.488621 0.872496 0
0.505657 0.862734 0
0.505657 0.862734 0
0.522499 0.85264 0
0.522499 0.85264 0
0.539138 0.842217 0
0.539138 0.842217 0
0.55557 0.83147 0
0.55557 0.83147 0
0.571788 0.820401 0
0.571788 0.820401 0
0.587785 0.809017 0
0.587785 0.809017 0
0.603556 0.797321 0
0.603556 0.797321 0
0.619094 0.785317 0
0.619094 0.785317 0
0.634393 0.77301 0
0.634393 0.77301 0
0.649448 0.760406 0
0.649448 0.760406 0
0.664252 0.747508 0
0.664252 0.747508 0
0.678801 0.734323 0
0.678801 0.734323 0
0.693087 0.720854 0
0.693087 0.720854 0
0.707107 0.707107 0
0.707107 0.707107 0
0.720854 0.693087 0
0.720854 0.693087 0
0.734323 0.678801 0
0.734323 0.678801 0
0.747508 0.664252 0
0.747508 0.664252 0
0.760406 0.649448 0
0.760406 0.649448 0
0.77301 0.634393 0
0.77301 0.634393 0
0.785317 0.619094 0
0.785317 0.619094 0
0.797321 0.603556 0
0.797321 0.603556 0
0.809017 0.587785 0
0.809017 0.587785 0
0.820401 0.571788 0
0.820401 0.571788 0
0.83147 0.55557 0
0.83147 0.55557 0
0.842217 0.539138 0
0.842217 0.539138 0
0.85264 0.522499 0
0.85264 0.522499 0
0.862734 0.505657 0
0.862734 0.505657 0
0.872496 0.488621 0
0.872496 0.488621 0
0.881921 0.471397 0
0.881921 0.471397 0
0.891007 0.45399 0
0.891007 0.45399 0
0.899748 0.436409 0
0.899748 0.436409 0
0.908143 0.41866 0
0.908143 0.41866 0
0.916188 0.400749 0
0.916188 0.400749 0
0.92388 0.382683 0
0.92388 0.382683 0
0.931215 0.36447 0
0.931215 0.36447 0
0.938191 0.346117 0
0.938191 0.346117 0
0.944806 0.32763 0
0.944806 0.32763 0
0.951057 0.309017 0
0.951057 0.309017 0
0.95694 0.290285 0
0.95694 0.290285 0
0.962455 0.27144 0
0.962455 0.27144 0
0.967599 0.252492 0
0.967599 0.252492 0
0.97237 0.233445 0
0.97237 0.233445 0
0.976766 0.214309 0
0.976766 0.214309 0
0.980785 0.19509 0
0.980785 0.19509 0
0.984427 0.175796 0
0.984427 0.175796 0
0.987688 0.156434 0
0.987688 0.156434 0
0.990569 0.137012 0
0.990569 0.137012 0
0.993068 0.117537 0
0.993068 0.117537 0
0.995185 0.0980171 0
0.995185 0.0980171 0
0.996917 0.0784591 0
0.996917 0.0784591 0
0.998266 0.0588708 0
0.998266 0.0588708 0
0.999229 0.0392598 0
0.999229 0.0392598 0
0.999807 0.0196337 0
0.999807 0.0196337 0
1 2.77556e-16 0
1 2.77556e-16 0
0.999807 -0.0196337 0
0.999807 -0.0196337 0
0.999229 -0.0392598 0
0.999229 -0.0392598 0
0.998266 -0.0588708 0
0.998266 -0.0588708 0
0.996917 -0.0784591 0
0.996917 -0.0784591 0
0.995185 -0.0980171 0
0.995185 -0.0980171 0
0.993068 -0.117537 0
0.993068 -0.117537 0
0.990569 -0.137012 0
0.990569 -0.137012 0
0.987688 -0.156434 0
0.987688 -0.156434 0
0.984427 -0.175796 0
0.984427 -0.175796 0
0.980785 -0.19509 0
0.980785 -0.19509 0
0.976766 -0.214309 0
0.976766 -0.214309 0
0.97237 -0.233445 0
0.97237 -0.233445 0
0.967599 -0.252492 0
0.967599 -0.252492 0
0.962455 -0.27144 0
0.962455 -0.27144 0
0.95694 -0.290285 0
0.95694 -0.290285 0
0.951057 -0.309017 0
0.951057 -0.309017 0
0.944806 -0.32763 0
0.944806 -0.32763 0
0.938191 -0.346117 0
0.938191 -0.346117 0
0.931215 -0.36447 0
0.931215 -0.36447 0
0.92388 -0.382683 0
0.92388 -0.382683 0
0.916188 -0.400749 0
0.916188 -0.400749 0
0.908143 -0.41866 0
0.908143 -0.41866 0
0.899748 -0.436409 0
0.899748 -0.436409 0
0.891007 -0.45399 0
0.891007 -0.45399 0
0.881921 -0.471397 0
0.881921 -0.471397 0
0.872496 -0.488621 0
0.872496 -0.488621 0
0.862734 -0.505657 0
0.862734 -0.505657 0
0.85264 -0.522499 0
0.85264 -0.522499 0
0.842217 -0.539138 0
0.842217 -0.539138 0
0.83147 -0.55557 0
0.83147 -0.55557 0
0.820401 -0.571788 0
0.820401 -0.571788 0
0.809017 -0.587785 0
0.809017 -0.587785 0
0.797321 -0.603556 0
0.797321 -0.603556 0
0.785317 -0.619094 0
0.785317 -0.619094 0
0.77301 -0.634393 0
0.77301 -0.634393 0
0.760406 -0.649448 0
0.760406 -0.649448 0
0.747508 -0.664252 0
0.747508 -0.664252 0
0.734323 -0.678801 0
0.734323 -0.678801 0
0.720854 -0.693087 0
0.720854 -0.693087 0
0.707107 -0.707107 0
0.707107 -0.707107 0
0.693087 -0.720854 0
0.693087 -0.720854 0
0.678801 -0.734323 0
0.678801 -0.734323 0
0.664252 -0.747508 0
0.664252 -0.747508 0
0.649448 -0.760406 0
0.649448 -0.760406 0
0.634393 -0.77301 0
0.634393 -0.77301 0
0.619094 -0.785317 0
0.619094 -0.785317 0
0.603556 -0.797321 0
0.603556 -0.797321 0
0.587785 -0.809017 0
0.587785 -0.809017 0
0.571788 -0.820401 0
0.571788 -0.820401 0
0.55557 -0.83147 0
0.55557 -0.83147 0
0.539138 -0.842217 0
0.539138 -0.842217 0
0.522499 -0.85264 0
0.522499 -0.85264 0
0.505657 -0.862734 0
0.505657 -0.862734 0
0.488621 -0.872496 0
0.488621 -0.872496 0
0.471397 -0.881921 0
0.471397 -0.881921 0
0.45399 -0.891007 0
0.45399 -0.891007 0
0.436409 -0.899748 0
0.436409 -0.899748 0
0.41866 -0.908143 0
0.41866 -0.908143 0
0.400749 -0.916188 0
0.400749 -0.916188 0
0.382683 -0.92388 0
0.382683 -0.92388 0
0.36447 -0.931215 0
0.36447 -0.931215 0
0.346117 -0.938191 0
0.346117 -0.938191 0
0.32763 -0.944806 0
0.32763 -0.944806 0
0.309017 -0.951057 0
0.309017 -0.951057 0
0.290285 -0.95694 0
0.290285 -0.95694 0
0.27144 -0.962455 0
0.27144 -0.962455 0
0.252492 -0.967599 0
0.252492 -0.967599 0
0.233445 -0.97237 0
0.233445 -0.97237 0
0.214309 -0.976766 0
0.214309 -0.976766 0
0.19509 -0.980785 0
0.19509 -0.980785 0
0.175796 -0.984427 0
0.175796 -0.984427 0
0.156434 -0.987688 0
0.156434 -0.987688 0
0.137012 -0.990569 0
0.137012 -0.990569 0
0.117537 -0.993068 0
0.117537 -0.993068 0
0.0980171 -0.995185 0
0.0980171 -0.995185 0
0.0784591 -0.996917 0
0.0784591 -0.996917 0
0.0588708 -0.998266 0
0.0588708 -0.998266 0
0.0392598 -0.999229 0
0.0392598 -0.999229 0
0.0196337 -0.999807 0
0.0196337 -0.999807 0
0 -1 0
0 -1 0
-0.0196337 -0.999807 0
-0.0196337 -0.999807 0
-0.0392598 -0.999229 0
-0.0392598 -0.999229 0
-0.0588708 -0.998266 0
-0.0588708 -0.998266 0
-0.0784591 -0.996917 0
-0.0784591 -0.996917 0
-0.0980171 -0.995185 0
-0.0980171 -0.995185 0
-0.117537 -0.993068 0
-0.117537 -0.993068 0
-0.137012 -0.990569 0
-0.137012 -0.990569 0
-0.156434 -0.987688 0
-0.156434 -0.987688 0
-0.175796 -0.984427 0
-0.175796 -0.984427 0
-0.19509 -0.980785 0
-0.19509 -0.980785 0
-0.214309 -0.976766 0
-0.214309 -0.976766 0
-0.233445 -0.97237 0
-0.233445 -0.97237 0
-0.252492 -0.967599 0
-0.252492 -0.967599 0
-0.27144 -0.962455 0
-0.27144 -0.962455 0
-0.290285 -0.95694 0
-0.290285 -0.95694 0
-0.309017 -0.951057 0
-0.309017 -0.951057 0
-0.32763 -0.944806 0
-0.32763 -0.944806 0
-0.346117 -0.938191 0
-0.346117 -0.938191 0
-0.36447 -0.931215 0
-0.36447 -0.931215 0
-0.382683 -0.92388 0
-0.382683 -0.92388 0
-0.400749 -0.916188 0
-0.400749 -0.916188 0
-0.41866 -0.908143 0
-0.41866 -0.908143 0
-0.436409 -0.899748 0
-0.436409 -0.899748 0
-0.45399 -0.891007 0
-0.45399 -0.891007 0
-0.471397 -0.881921 0
-0.471397 -0.881921 0
-0.488621 -0.872496 0
-0.488621 -0.872496 0
-0.505657 -0.862734 0
-0.505657 -0.862734 0
-0.522499 -0.85264 0
-0.522499 -0.85264 0
-0.539138 -0.842217 0
-0.539138 -0.842217 0
-0.55557 -0.83147 0
-0.55557 -0.83147 0
-0.571788 -0.820401 0
-0.571788 -0.820401 0
-0.587785 -0.809017 0
-0.587785 -0.809017 0
-0.603556 -0.797321 0
-0.603556 -0.797321 0
-0.619094 -0.785317 0
-0.619094 -0.785317 0
-0.634393 -0.77301 0
-0.634393 -0.77301 0
-0.649448 -0.760406 0
-0.649448 -0.760406 0
-0.664252 -0.747508 0
-0.664252 -0.747508 0
-0.678801 -0.734323 0
-0.678801 -0.734323 0
-0.693087 -0.720854 0
-0.693087 -0.720854 0
-0.707107 -0.707107 0
-0.707107 -0.707107 0
-0.720854 -0.693087 0
-0.720854 -0.693087 0
-0.734323 -0.678801 0
-0.734323 -0.678801 0
-0.747508 -0.664252 0
-0.747508 -0.664252 0
-0.760406 -0.649448 0
-0.760406 -0.649448 0
-0.77301 -0.634393 0
-0.77301 -0.634393 0
-0.785317 -0.619094 0
-0.785317 -0.619094 0
-0.797321 -0.603556 0
-0.797321 -0.603556 0
-0.809017 -0.587785 0
-0.809017 -0.587785 0
-0.820401 -0.571788 0
-0.820401 -0.571788 0
-0.83147 -0.55557 0
-0.83147 -0.55557 0
-0.842217 -0.539138 0
-0.842217 -0.539138 0
-0.85264 -0.522499 0
-0.85264 -0.522499 0
-0.862734 -0.505657 0
-0.862734 -0.505657 0
-0.872496 -0.488621 0
-0.872496 -0.488621 0
-0.881921 -0.471397 0
-0.881921 -0.471397 0
-0.891007 -0.45399 0
-0.891007 -0.45399 0
-0.899748 -0.436409 0
-0.899748 -0.436409 0
-0.908143 -0.41866 0
-0.908143 -0.41866 0
-0.916188 -0.400749 0
-0.916188 -0.400749 0
-0.92388 -0.382683 0
-0.92388 -0.382683 0
-0.931215 -0.36447 0
-0.931215 -0.36447 0
-0.938191 -0.346117 0
-0.938191 -0.346117 0
-0.944806 -0.32763 0
-0.944806 -0.32763 0
-0.951057 -0.309017 0
-0.951057 -0.309017 0
-0.95694 -0.290285 0
-0.95694 -0.290285 0
-0.962455 -0.27144 0
-0.962455 -0.27144 0
-0.967599 -0.252492 0
-0.967599 -0.252492 0
-0.97237 -0.233445 0
-0.97237 -0.233445 0
-0.976766 -0.214309 0
-0.976766 -0.214309 0
-0.980785 -0.19509 0
-0.980785 -0.19509 0
-0.984427 -0.175796 0
-0.984427 -0.175796 0
-0.987688 -0.156434 0
-0.987688 -0.156434 0
-0.990569 -0.137012 0
-0.990569 -0.137012 0
-0.993068 -0.117537 0
-0.993068 -0.117537 0
-0.995185 -0.0980171 0
-0.995185 -0.0980171 0
-0.996917 -0.0784591 0
-0.996917 -0.0784591 0
-0.998266 -0.0588708 0
-0.998266 -0.0588708 0
-0.999229 -0.0392598 0
-0.999229 -0.0392598 0
-0.999807 -0.0196337 0
-0.999807 -0.0196337 0
-1 -2.77556e-16 0
-1 -2.77556e-16 0
-0.999807 0.0196337 0
-0.999807 0.0196337 0
-0.999229 0.0392598 0
-0.999229 0.0392598 0
-0.998266 0.0588708 0
-0.998266 0.0588708 0
-0.996917 0.0784591 0
-0.996917 0.0784591 0
-0.995185 0.0980171 0
-0.995185 0.0980171 0
-0.993068 0.117537 0
-0.993068 0.117537 0
-0.990569 0.137012 0
-0.990569 0.137012 0
-0.987688 0.156434 0
-0.987688 0.156434 0
-0.984427 0.175796 0
-0.984427 0.175796 0
-0.980785 0.19509 0
-0.980785 0.19509 0
-0.976766 0.214309 0
-0.976766 0.214309 0
-0.97237 0.233445 0
-0.97237 0.233445 0
-0.967599 0.252492 0
-0.967599 0.252492 0
-0.962455 0.27144 0
-0.962455 0.27144 0
-0.95694 0.290285 0
-0.95694 0.290285 0
-0.951057 0.309017 0
-0.951057 0.309017 0
-0.944806 0.32763 0
-0.944806 0.32763 0
-0.938191 0.346117 0
-0.938191 0.346117 0
-0.931215 0.36447 0
-0.931215 0.36447 0
-0.92388 0.382683 0
-0.92388 0.382683 0
-0.916188 0.400749 0
-0.916188 0.400749 0
-0.908143 0.41866 0
-0.908143 0.41866 0
-0.899748 0.436409 0
-0.899748 0.436409 0
-0.891007 0.45399 0
-0.891007 0.45399 0
-0.881921 0.471397 0
-0.881921 0.471397 0
-0.872496 0.488621 0
-0.872496 0.488621 0
-0.862734 0.505657 0
-0.862734 0.505657 0
-0.85264 0.522499 0
-0.85264 0.522499 0
-0.842217 0.539138 0
-0.842217 0.539138 0
-0.83147 0.55557 0
-0.83147 0.55557 0
-0.820401 0.571788 0
-0.820401 0.571788 0
-0.809017 0.587785 0
-0.809017 0.587785 0
-0.797321 0.603556 0
-0.797321 0.603556 0
-0.785317 0.619094 0
-0.785317 0.619094 0
-0.77301 0.634393 0
-0.77301 0.634393 0
-0.760406 0.649448 0
-0.760406 0.649448 0
-0.747508 0.664252 0
-0.747508 0.664252 0
-0.734323 0.678801 0
-0.734323 0.678801 0
-0.720854 0.693087 0
-0.720854 0.693087 0
-0.707107 0.707107 0
-0.707107 0.707107 0
-0.693087 0.720854 0
-0.693087 0.720854 0
-0.678801 0.734323 0
-0.678801 0.734323 0
-0.664252 0.747508 0
-0.664252 0.747508 0
-0.649448 0.760406 0
-0.649448 0.760406 0
-0.634393 0.77301 0
-0.634393 0.77301 0
-0.619094 0.785317 0
-0.619094 0.785317 0
-0.603556 0.797321 0
-0.603556 0.797321 0
-0.587785 0.809017 0
-0.587785 0.809017 0
-0.571788 0.820401 0
-0.571788 0.820401 0
-0.55557 0.83147 0
-0.55557 0.83147 0
-0.539138 0.842217 0
-0.539138 0.842217 0
-0.522499 0.85264 0
-0.522499 0.85264 0
-0.505657 0.862734 0
-0.505657 0.862734 0
-0.488621 0.872496 0
-0.488621 0.872496 0
-0.471397 0.881921 0
-0.471397 0.881921 0
-0.45399 0.891007 0
-0.45399 0.891007 0
-0.436409 0.899748 0
-0.436409 0.899748 0
-0.41866 0.908143 0
-0.41866 0.908143 0
-0.400749 0.916188 0
-0.400749 0.916188 0
-0.382683 0.92388 0
-0.382683 0.92388 0
-0.36447 0.931215 0
-0.36447 0.931215 0
-0.346117 0.938191 0
-0.346117 0.938191 0
-0.32763 0.944806 0
-0.32763 0.944806 0
-0.309017 0.951057 0
-0.309017 0.951057 0
-0.290285 0.95694 0
-0.290285 0.95694 0
-0.27144 0.962455 0
-0.27144 0.962455 0
-0.252492 0.967599 0
-0.252492 0.967599 0
-0.233445 0.97237 0
-0.233445 0.97237 0
-0.214309 0.976766 0
-0.214309 0.976766 0
-0.19509 0.980785 0
-0.19509 0.980785 0
-0.175796 0.984427 0
-0.175796 0.984427 0
-0.156434 0.987688 0
-0.156434 0.987688 0
-0.137012 0.990569 0
-0.137012 0.990569 0
-0.117537 0.993068 0
-0.117537 0.993068 0
-0.0980171 0.995185 0
-0.0980171 0.995185 0
-0.0784591 0.996917 0
-0.0784591 0.996917 0
-0.0588708 0.998266 0
-0.0588708 0.998266 0
-0.0392598 0.999229 0
-0.0392598 0.999229 0
-0.0196337 0.999807 0
-0.0196337 0.999807 0
0 1 0

CELLS 320 960
2	0	1
2	2	3
2	4	5
2	6	7
2	8	9
2	10	11
2	12	13
2	14	15
2	16	17
2	18	19
2	20	21
2	22	23
2	24	25
2	26	27
2	28	29
2	30	31
2	32	33
2	34	35
2	36	37
2	38	39
2	40	41
2	42	43
2	44	45
2	46	47
2	48	49
2	50	51
2	52	53
2	54	55
2	56	57
2	58	59
2	60	61
2	62	63
2	64	65
2	66	67
2	68	69
2	70	71
2	72	73
2	74	75
2	76	77
2	78	79
2	80	81
2	82	83
2	84	85
2	86	87
2	88	89
2	90	91
2	92	93
2	94	95
2	96	97
2	98	99
2	100	101
2	102	103
2	104	105
2	106	107
2	108	109
2	110	111
2	112	113
2	114	115
2	116	117
2	118	119
2	120	121
2	122	123
2	124	125
2	126	127
2	128	129
2	130	131
2	132	133
2	134	135
2	136	137
2	138	139
2	140	141
2	142	143
2	144	145
2	146	147
2	148	149
2	150	151
2	152	153
2	154	155
2	156	157
2	158	159
2	160	161
2	162	163
2	164	165
2	166	167
2	168	169
2	170	171
2	172	173
2	174	175
2	176	177
2	178	179
2	180	181
2	182	183
2	184	185
2	186	187
2	188	189
2	190	191
2	192	193
2	194	195
2	196	197
2	198	199
2	200	201
2	202	203
2	204	205
2	206	207
2	208	209
2	210	211
2	212	213
2	214	215
2	216	217
2	218	219
2	220	221
2	222	223
2	224	225
2	226	227
2	228	229
2	230	231
2	232	233
2	234	235
2	236	237
2	238	239
2	240	241
2	242	243
2	244	245
2	246	247
2	248	249
2	250	251
2	252	253
2	254	255
2	256	257
2	258	259
2	260	261
2	262	263
2	264	265
2	266	267
2	268	269
2	270	271
2	272	273
2	274	275
2	276	277
2	278	279
2	280	281
2	282	283
2	284	285
2	286	287
2	288	289
2	290	291
2	292	293
2	294	295
2	296	297
2	298	299
2	300	301
2	302	303
2	304	305
2	306	307
2	308	309
2	310	311
2	312	313
2	314	315
2	316	317
2	318	319
2	320	321
2	322	323
2	324	325
2	326	327
2	328	329
2	330	331
2	332	333
2	334	335
2	336	337
2	338	339
2	340	341
2	342	343
2	344	345
2	346	347
2	348	349
2	350	351
2	352	353
2	354	355
2	356	357
2	358	359
2	360	361
2	362	363
2	364	365
2	366	367
2	368	369
2	370	371
2	372	373
2	374	375
2	376	377
2	378	379
2	380	381
2	382	383
2	384	385
2	386	387
2	388	389
2	390	391
2	392	393
2	394	395
2	396	397
2	398	399
2	400	401
2	402	403
2	404	405
2	406	407
2	408	409
2	410	411
2	412	413
2	414	415
2	416	417
2	418	419
2	420	421
2	422	423
2	424	425
2	426	427
2	428	429
2	430	431
2	432	433
2	434	435
2	436	437
2	438	439
2	440	441
2	442	443
2	444	445
2	446	447
2	448	449
2	450	451
2	452	453
2	454	455
2	456	457
2	458	459
2	460	461
2	462	463
2	464	465
2	466	467
2	468	469
2	470	471
2	472	473
2	474	475
2	476	477
2	478	479
2	480	481
2	482	483
2	484	485
2	486	487
2	488	489
2	490	491
2	492	493
2	494	495
2	496	497
2	498	499
2	500	501
2	502	503
2	504	505
2	506	507
2	508	509
2	510	511
2	512	513
2	514	515
2	516	517
2	518	519
2	520	521
2	522	523
2	524	525
2	526	527
2	528	529
2	530	531
2	532	533
2	534	535
2	536	537
2	538	539
2	540	541
2	542	543
2	544	545
2	546	547
2	548	549
2	550	551
2	552	553
2	554	555
2	556	557
2	558	559
2	560	561
2	562	563
2	564	565
2	566	567
2	568	569
2	570	571
2	572	573
2	574	575
2	576	577
2	578	579
2	580	581
2	582	583
2	584	585
2	586	587
2	588	589
2	590	591
2	592	593
2	594	595
2	596	597
2	598	599
2	600	601
2	602	603
2	604	605
2	606	607
2	608	609
2	610	611
2	612	613
2	614	615
2	616	617
2	618	619
2	620	621
2	622	623
2	624	625
2	626	627
2	628	629
2	630	631
2	632	633
2	634	635
2	636	637
2	638	639

CELL_TYPES 320
 3 3 3 3 3 3 3 3 3 3 3 3 3 3 3 3 3 3 3 3 3 3 3 3 3 3 3 3 3 3 3 3 3 3 3 3 3 3 3 3 3 3 3 3 3 3 3 3 3 3 3 3 3 3 3 3 3 3 3 3 3 3 3 3 3 3 3 3 3 3 3 3 3 3 3 3 3 3 3 3 3 3 3 3 3 3 3 3 3 3 3 3 3 3 3 3 3 3 3 3 3 3 3 3 3 3 3 3 3 3 3 3 3 3 3 3 3 3 3 3 3 3 3 3 3 3 3 3 3 3 3 3 3 3 3 3 3 3 3 3 3 3 3 3 3 3 3 3 3 3 3 3 3 3 3 3 3 3 3 3 3 3 3 3 3 3 3 3 3 3 3 3 3 3 3 3 3 3 3 3 3 3 3 3 3 3 3 3 3 3 3 3 3 3 3 3 3 3 3 3 3 3 3 3 3 3 3 3 3 3 3 3 3 3 3 3 3 3 3 3 3 3 3 3 3 3 3 3 3 3 3 3 3 3 3 3 3 3 3 3 3 3 3 3 3 3 3 3 3 3 3 3 3 3 3 3 3 3 3 3 3 3 3 3 3 3 3 3 3 3 3 3 3 3 3 3 3 3 3 3 3 3 3 3 3 3 3 3 3 3 3 3 3 3 3 3 3 3 3 3 3 3 3 3 3 3 3 3 3 3 3 3 3 3 3 3 3 3 3 3
POINT_DATA 640
SCALARS phi double 1
LOOKUP_TABLE default
0.999935 1.01937 1.01937 1.03842 1.03842 1.05707 1.05707 1.07531 1.07531 1.09313 1.09313 1.11053 1.11053 1.12751 1.12751 1.14405 1.14405 1.16015 1.16015 1.1758 1.1758 1.191 1.191 1.20574 1.20574 1.22001 1.22001 1.23382 1.23382 1.24714 1.24714 1.25999 1.25999 1.27235 1.27235 1.28423 1.28423 1.2956 1.2956 1.30648 1.30648 1.31685 1.31685 1.32672 1.32672 1.33607 1.33607 1.34491 1.34491 1.35323 1.35323 1.36103 1.36103 1.3683 1.3683 1.37505 1.37505 1.38127 1.38127 1.38695 1.38695 1.3921 1.3921 1.39671 1.39671 1.40079 1.40079 1.40432 1.40432 1.40731 1.40731 1.40976 1.40976 1.41167 1.41167 1.41303 1.41303 1.41385 1.41385 1.41412 1.41412 1.41385 1.41385 1.41303 1.41303 1.41167 1.41167 1.40976 1.40976 1.40731 1.40731 1.40432 1.40432 1.40079 1.40079 1.39671 1.39671 1.3921 1.3921 1.38695 1.38695 1.38127 1.38127 1.37505 1.37505 1.3683 1.3683 1.36103 1.36103 1.35323 1.35323 1.34491 1.34491 1.33607 1.33607 1.32672 1.32672 1.31685 1.31685 1.30648 1.30648 1.2956 1.2956 1.28423 1.28423 1.27235 1.27235 1.25999 1.25999 1.24714 1.24714 1.23382 1.23382 1.22001 1.22001 1.20574 1.20574 1.191 1.191 1.1758 1.1758 1.16015 1.16015 1.14405 1.14405 1.12751 1.12751 1.11053 1.11053 1.09313 1.09313 1.07531 1.07531 1.05707 1.05707 1.03842 1.03842 1.01937 1.01937 0.999935 0.999935 0.98011 0.98011 0.959907 0.959907 0.939334 0.939334 0.918399 0.918399 0.89711 0.89711 0.875474 0.875474 0.853502 0.853502 0.8312 0.8312 0.808578 0.808578 0.785644 0.785644 0.762407 0.762407 0.738877 0.738877 0.715061 0.715061 0.69097 0.69097 0.666613 0.666613 0.641998 0.641998 0.617136 0.617136 0.592036 0.592036 0.566708 0.566708 0.541161 0.541161 0.515406 0.515406 0.489452 0.489452 0.463309 0.463309 0.436988 0.436988 0.410498 0.410498 0.38385 0.38385 0.357054 0.357054 0.33012 0.33012 0.303059 0.303059 0.275882 0.275882 0.248597 0.248597 0.221217 0.221217 0.193752 0.193752 0.166212 0.166212 0.138608 0.138608 0.110951 0.110951 0.0832505 0.0832505 0.0555182 0.0555182 0.0277644 0.0277644 -4.89281e-13 -4.89281e-13 -0.0277644 -0.0277644 -0.0555182 -0.0555182 -0.0832505 -0.0832505 -0.110951 -0.110951 -0.138608 -0.138608 -0.166212 -0.166212 -0.193752 -0.193752 -0.221217 -0.221217 -0.248597 -0.248597 -0.275882 -0.275882 -0.303059 -0.303059 -0.33012 -0.33012 -0.357054 -0.357054 -0.38385 -0.38385 -0.410498 -0.410498 -0.436988 -0.436988 -0.463309 -0.463309 -0.489452 -0.489452 -0.515406 -0.515406 -0.541161 -0.541161 -0.566708 -0.566708 -0.592036 -0.592036 -0.617136 -0.617136 -0.641998 -0.641998 -0.666613 -0.666613 -0.69097 -0.69097 -0.715061 -0.715061 -0.738877 -0.738877 -0.762407 -0.762407 -0.785644 -0.785644 -0.808578 -0.808578 -0.8312 -0.8312 -0.853502 -0.853502 -0.875474 -0.875474 -0.89711 -0.89711 -0.918399 -0.918399 -0.939334 -0.939334 -0.959907 -0.959907 -0.98011 -0.98011 -0.999935 -0.999935 -1.01937 -1.01937 -1.03842 -1.03842 -1.05707 -1.05707 -1.07531 -1.07531 -1.09313 -1.09313 -1.11053 -1.11053 -1.12751 -1.12751 -1.14405 -1.14405 -1.16015 -1.16015 -1.1758 -1.1758 -1.191 -1.191 -1.20574 -1.20574 -1.22001 -1.22001 -1.23382 -1.23382 -1.24714 -1.24714 -1.25999 -1.25999 -1.27235 -1.27235 -1.28423 -1.28423 -1.2956 -1.2956 -1.30648 -1.30648 -1.31685 -1.31685 -1.32672 -1.32672 -1.33607 -1.33607 -1.34491 -1.34491 -1.35323 -1.35323 -1.36103 -1.36103 -1.3683 -1.3683 -1.37505 -1.37505 -1.38127 -1.38127 -1.38695 -1.38695 -1.3921 -1.3921 -1.39671 -1.39671 -1.40079 -1.40079 -1.40432 -1.40432 -1.40731 -1.40731 -1.40976 -1.40976 -1.41167 -1.41167 -1.41303 -1.41303 -1.41385 -1.41385 -1.41412 -1.41412 -1.41385 -1.41385 -1.41303 -1.41303 -1.41167 -1.41167 -1.40976 -1.40976 -1.40731 -1.40731 -1.40432 -1.40432 -1.40079 -1.40079 -1.39671 -1.39671 -1.3921 -1.3921 -1.38695 -1.38695 -1.38127 -1.38127 -1.37505 -1.37505 -1.3683 -1.3683 -1.36103 -1.36103 -1.35323 -1.35323 -1.34491 -1.34491 -1.33607 -1.33607 -1.32672 -1.32672 -1.31685 -1.31685 -1.30648 -1.30648 -1.2956 -1.2956 -1.28423 -1.28423 -1.27235 -1.27235 -1.25999 -1.25999 -1.24714 -1.24714 -1.23382 -1.23382 -1.22001 -1.22001 -1.20574 -1.20574 -1.191 -1.191 -1.1758 -1.1758 -1.16015 -1.16015 -1.14405 -1.14405 -1.12751 -1.12751 -1.11053 -1.11053 -1.09313 -1.09313 -1.07531 -1.07531 -1.05707 -1.05707 -1.03842 -1.03842 -1.01937 -1.01937 -0.999935 -0.999935 -0.98011 -0.98011 -0.959907 -0.959907 -0.939334 -0.939334 -0.918399 -0.918399 -0.89711 -0.89711 -0.875474 -0.875474 -0.853502 -0.853502 -0.8312 -0.8312 -0.808578 -0.808578 -0.785644 -0.785644 -0.762407 -0.762407 -0.738877 -0.738877 -0.715061 -0.715061 -0.69097 -0.69097 -0.666613 -0.666613 -0.641998 -0.641998 -0.617136 -0.617136 -0.592036 -0.592036 -0.566708 -0.566708 -0.541161 -0.541161 -0.515406 -0.515406 -0.489452 -0.489452 -0.463309 -0.463309 -0.436988 -0.436988 -0.410498 -0.410498 -0.38385 -0.38385 -0.357054 -0.357054 -0.33012 -0.33012 -0.303059 -0.303059 -0.275882 -0.275882 -0.248597 -0.248597 -0.221217 -0.221217 -0.193752 -0.193752 -0.166212 -0.166212 -0.138608 -0.138608 -0.110951 -0.110951 -0.0832505 -0.0832505 -0.0555182 -0.0555182 -0.0277644 -0.0277644 4.89547e-13 4.89547e-13 0.0277644 0.0277644 0.0555182 0.0555182 0.0832505 0.0832505 0.110951 0.110951 0.138608 0.138608 0.166212 0.166212 0.193752 0.193752 0.221217 0.221217 0.248597 0.248597 0.275882 0.275882 0.303059 0.303059 0.33012 0.33012 0.357054 0.357054 0.38385 0.38385 0.410498 0.410498 0.436988 0.436988 0.463309 0.463309 0.489452 0.489452 0.515406 0.515406 0.541161 0.541161 0.566708 0.566708 0.592036 0.592036 0.617136 0.617136 0.641998 0.641998 0.666613 0.666613 0.69097 0.69097 0.715061 0.715061 0.738877 0.738877 0.762407 0.762407 0.785644 0.785644 0.808578 0.808578 0.8312 0.8312 0.853502 0.853502 0.875474 0.875474 0.89711 0.89711 0.918399 0.918399 0.939334 0.939334 0.959907 0.959907 0.98011 0.98011 0.999935 
SCALARS alpha double 1
LOOKUP_TABLE default
0.503125 0.503125 0.503125 0.503125 0.503125 0.503125 0.503125 0.503125 0.503125 0.503125 0.503125 0.503125 0.503125 0.503125 0.503125 0.503125 0.503125 0.503125 0.503125 0.503125 0.503125 0.503125 0.503125 0.503125 0.503125 0.503125 0.503125 0.503125 0.503125 0.503125 0.503125 0.503125 0.503125 0.503125 0.503125 0.503125 0.503125 0.503125 0.503125 0.503125 0.503125 0.503125 0.503125 0.503125 0.503125 0.503125 0.503125 0.503125 0.503125 0.503125 0.503125 0.503125 0.503125 0.503125 0.503125 0.503125 0.503125 0.503125 0.503125 0.503125 0.503125 0.503125 0.503125 0.503125 0.503125 0.503125 0.503125 0.503125 0.503125 0.503125 0.503125 0.503125 0.503125 0.503125 0.503125 0.503125 0.503125 0.503125 0.503125 0.503125 0.503125 0.503125 0.503125 0.503125 0.503125 0.503125 0.503125 0.503125 0.503125 0.503125 0.503125 0.503125 0.503125 0.503125 0.503125 0.503125 0.503125 0.503125 0.503125 0.503125 0.503125 0.503125 0.503125 0.503125 0.503125 0.503125 0.503125 0.503125 0.503125 0.503125 0.503125 0.503125 0.503125 0.503125 0.503125 0.503125 0.503125 0.503125 0.503125 0.503125 0.503125 0.503125 0.503125 0.503125 0.503125 0.503125 0.503125 0.503125 0.503125 0.503125 0.503125 0.503125 0.503125 0.503125 0.503125 0.503125 0.503125 0.503125 0.503125 0.503125 0.503125 0.503125 0.503125 0.503125 0.503125 0.503125 0.503125 0.503125 0.503125 0.503125 0.503125 0.503125 0.503125 0.503125 0.503125 0.503125 0.503125 0.503125 0.503125 0.503125 0.503125 0.503125 0.503125 0.503125 0.503125 0.503125 0.503125 0.503125 0.503125 0.503125 0.503125 0.503125 0.503125 0.503125 0.503125 0.503125 0.503125 0.503125 0.503125 0.503125 0.503125 0.503125 0.503125 0.503125 0.503125 0.503125 0.503125 0.503125 0.503125 0.503125 0.503125 0.503125 0.503125 0.503125 0.503125 0.503125 0.503125 0.503125 0.503125 0.503125 0.503125 0.503125 0.503125 0.503125 0.503125 0.503125 0.503125 0.503125 0.503125 0.503125 0.503125 0.503125 0.503125 0.503125 0.503125 0.503125 0.503125 0.503125 0.503125 0.503125 0.503125 0.503125 0.503125 0.503125 0.503125 0.503125 0.503125 0.503125 0.503125 0.503125 0.503125 0.503125 0.503125 0.503125 0.503125 0.503125 0.503125 0.503125 0.503125 0.503125 0.503125 0.503125 0.503125 0.503125 0.503125 0.503125 0.503125 0.503125 0.503125 0.503125 0.503125 0.503125 0.503125 0.503125 0.503125 0.503125 0.503125 0.503125 0.503125 0.503125 0.503125 0.503125 0.503125 0.503125 0.503125 0.503125 0.503125 0.503125 0.503125 0.503125 0.503125 0.503125 0.503125 0.503125 0.503125 0.503125 0.503125 0.503125 0.503125 0.503125 0.503125 0.503125 0.503125 0.503125 0.503125 0.503125 0.503125 0.503125 0.503125 0.503125 0.503125 0.503125 0.503125 0.503125 0.503125 0.503125 0.503125 0.503125 0.503125 0.503125 0.503125 0.503125 0.503125 0.503125 0.503125 0.503125 0.503125 0.503125 0.503125 0.503125 0.503125 0.503125 0.503125 0.503125 0.503125 0.503125 0.503125 0.503125 0.503125 0.503125 0.503125 0.503125 0.503125 0.503125 0.503125 0.503125 0.503125 0.503125 0.503125 0.503125 0.503125 0.503125 0.503125 0.503125 0.503125 0.503125 0.503125 0.503125 0.503125 0.503125 0.503125 0.503125 0.503125 0.503125 0.503125 0.503125 0.503125 0.503125 0.503125 0.503125 0.503125 0.503125 0.503125 0.503125 0.503125 0.503125 0.503125 0.503125 0.503125 0.503125 0.503125 0.503125 0.503125 0.503125 0.503125 0.503125 0.503125 0.503125 0.503125 0.503125 0.503125 0.503125 0.503125 0.503125 0.503125 0.503125 0.503125 0.503125 0.503125 0.503125 0.503125 0.503125 0.503125 0.503125 0.503125 0.503125 0.503125 0.503125 0.503125 0.503125 0.503125 0.503125 0.503125 0.503125 0.503125 0.503125 0.503125 0.503125 0.503125 0.503125 0.503125 0.503125 0.503125 0.503125 0.503125 0.503125 0.503125 0.503125 0.503125 0.503125 0.503125 0.503125 0.503125 0.503125 0.503125 0.503125 0.503125 0.503125 0.503125 0.503125 0.503125 0.503125 0.503125 0.503125 0.503125 0.503125 0.503125 0.503125 0.503125 0.503125 0.503125 0.503125 0.503125 0.503125 0.503125 0.503125 0.503125 0.503125 0.503125 0.503125 0.503125 0.503125 0.503125 0.503125 0.503125 0.503125 0.503125 0.503125 0.503125 0.503125 0.503125 0.503125 0.503125 0.503125 0.503125 0.503125 0.503125 0.503125 0.503125 0.503125 0.503125 0.503125 0.503125 0.503125 0.503125 0.503125 0.503125 0.503125 0.503125 0.503125 0.503125 0.503125 0.503125 0.503125 0.503125 0.503125 0.503125 0.503125 0.503125 0.503125 0.503125 0.503125 0.503125 0.503125 0.503125 0.503125 0.503125 0.503125 0.503125 0.503125 0.503125 0.503125 0.503125 0.503125 0.503125 0.503125 0.503125 0.503125 0.503125 0.503125 0.503125 0.503125 0.503125 0.503125 0.503125 0.503125 0.503125 0.503125 0.503125 0.503125 0.503125 0.503125 0.503125 0.503125 0.503125 0.503125 0.503125 0.503125 0.503125 0.503125 0.503125 0.503125 0.503125 0.503125 0.503125 0.503125 0.503125 0.503125 0.503125 0.503125 0.503125 0.503125 0.503125 0.503125 0.503125 0.503125 0.503125 0.503125 0.503125 0.503125 0.503125 0.503125 0.503125 0.503125 0.503125 0.503125 0.503125 0.503125 0.503125 0.503125 0.503125 0.503125 0.503125 0.503125 0.503125 0.503125 0.503125 0.503125 0.503125 0.503125 0.503125 0.503125 0.503125 0.503125 0.503125 0.503125 0.503125 0.503125 0.503125 0.503125 0.503125 0.503125 0.503125 0.503125 0.503125 0.503125 0.503125 0.503125 0.503125 0.503125 0.503125 0.503125 0.503125 0.503125 0.503125 0.503125 0.503125 0.503125 0.503125 0.503125 0.503125 0.503125 0.503125 0.503125 0.503125 0.503125 0.503125 0.503125 0.503125 0.503125 0.503125 0.503125 0.503125 0.503125 0.503125 0.503125 0.503125 0.503125 0.503125 0.503125 0.503125 0.503125 0.503125 0.503125 0.503125 0.503125 0.503125 0.503125 0.503125 0.503125 0.503125 0.503125 0.503125 0.503125 0.503125 0.503125 0.503125 0.503125 0.503125 0.503125 0.503125 0.503125 0.503125 0.503125 0.503125 0.503125 0.503125 0.503125 0.503125 0.503125 
