# vtk DataFile Version 3.0
#This file was generated by the deal.II library on 2020/7/10 at 23:10:07
ASCII
DATASET UNSTRUCTURED_GRID

POINTS 320 double
0 1 0
0.0392598 0.999229 0
0.0392598 0.999229 0
0.0784591 0.996917 0
0.0784591 0.996917 0
0.117537 0.993068 0
0.117537 0.993068 0
0.156434 0.987688 0
0.156434 0.987688 0
0.19509 0.980785 0
0.19509 0.980785 0
0.233445 0.97237 0
0.233445 0.97237 0
0.27144 0.962455 0
0.27144 0.962455 0
0.309017 0.951057 0
0.309017 0.951057 0
0.346117 0.938191 0
0.346117 0.938191 0
0.382683 0.92388 0
0.382683 0.92388 0
0.41866 0.908143 0
0.41866 0.908143 0
0.45399 0.891007 0
0.45399 0.891007 0
0.488621 0.872496 0
0.488621 0.872496 0
0.522499 0.85264 0
0.522499 0.85264 0
0.55557 0.83147 0
0.55557 0.83147 0
0.587785 0.809017 0
0.587785 0.809017 0
0.619094 0.785317 0
0.619094 0.785317 0
0.649448 0.760406 0
0.649448 0.760406 0
0.678801 0.734323 0
0.678801 0.734323 0
0.707107 0.707107 0
0.707107 0.707107 0
0.734323 0.678801 0
0.734323 0.678801 0
0.760406 0.649448 0
0.760406 0.649448 0
0.785317 0.619094 0
0.785317 0.619094 0
0.809017 0.587785 0
0.809017 0.587785 0
0.83147 0.55557 0
0.83147 0.55557 0
0.85264 0.522499 0
0.85264 0.522499 0
0.872496 0.488621 0
0.872496 0.488621 0
0.891007 0.45399 0
0.891007 0.45399 0
0.908143 0.41866 0
0.908143 0.41866 0
0.92388 0.382683 0
0.92388 0.382683 0
0.938191 0.346117 0
0.938191 0.346117 0
0.951057 0.309017 0
0.951057 0.309017 0
0.962455 0.27144 0
0.962455 0.27144 0
0.97237 0.233445 0
0.97237 0.233445 0
0.980785 0.19509 0
0.980785 0.19509 0
0.987688 0.156434 0
0.987688 0.156434 0
0.993068 0.117537 0
0.993068 0.117537 0
0.996917 0.0784591 0
0.996917 0.0784591 0
0.999229 0.0392598 0
0.999229 0.0392598 0
1 2.77556e-16 0
1 2.77556e-16 0
0.999229 -0.0392598 0
0.999229 -0.0392598 0
0.996917 -0.0784591 0
0.996917 -0.0784591 0
0.993068 -0.117537 0
0.993068 -0.117537 0
0.987688 -0.156434 0
0.987688 -0.156434 0
0.980785 -0.19509 0
0.980785 -0.19509 0
0.97237 -0.233445 0
0.97237 -0.233445 0
0.962455 -0.27144 0
0.962455 -0.27144 0
0.951057 -0.309017 0
0.951057 -0.309017 0
0.938191 -0.346117 0
0.938191 -0.346117 0
0.92388 -0.382683 0
0.92388 -0.382683 0
0.908143 -0.41866 0
0.908143 -0.41866 0
0.891007 -0.45399 0
0.891007 -0.45399 0
0.872496 -0.488621 0
0.872496 -0.488621 0
0.85264 -0.522499 0
0.85264 -0.522499 0
0.83147 -0.55557 0
0.83147 -0.55557 0
0.809017 -0.587785 0
0.809017 -0.587785 0
0.785317 -0.619094 0
0.785317 -0.619094 0
0.760406 -0.649448 0
0.760406 -0.649448 0
0.734323 -0.678801 0
0.734323 -0.678801 0
0.707107 -0.707107 0
0.707107 -0.707107 0
0.678801 -0.734323 0
0.678801 -0.734323 0
0.649448 -0.760406 0
0.649448 -0.760406 0
0.619094 -0.785317 0
0.619094 -0.785317 0
0.587785 -0.809017 0
0.587785 -0.809017 0
0.55557 -0.83147 0
0.55557 -0.83147 0
0.522499 -0.85264 0
0.522499 -0.85264 0
0.488621 -0.872496 0
0.488621 -0.872496 0
0.45399 -0.891007 0
0.45399 -0.891007 0
0.41866 -0.908143 0
0.41866 -0.908143 0
0.382683 -0.92388 0
0.382683 -0.92388 0
0.346117 -0.938191 0
0.346117 -0.938191 0
0.309017 -0.951057 0
0.309017 -0.951057 0
0.27144 -0.962455 0
0.27144 -0.962455 0
0.233445 -0.97237 0
0.233445 -0.97237 0
0.19509 -0.980785 0
0.19509 -0.980785 0
0.156434 -0.987688 0
0.156434 -0.987688 0
0.117537 -0.993068 0
0.117537 -0.993068 0
0.0784591 -0.996917 0
0.0784591 -0.996917 0
0.0392598 -0.999229 0
0.0392598 -0.999229 0
0 -1 0
0 -1 0
-0.0392598 -0.999229 0
-0.0392598 -0.999229 0
-0.0784591 -0.996917 0
-0.0784591 -0.996917 0
-0.117537 -0.993068 0
-0.117537 -0.993068 0
-0.156434 -0.987688 0
-0.156434 -0.987688 0
-0.19509 -0.980785 0
-0.19509 -0.980785 0
-0.233445 -0.97237 0
-0.233445 -0.97237 0
-0.27144 -0.962455 0
-0.27144 -0.962455 0
-0.309017 -0.951057 0
-0.309017 -0.951057 0
-0.346117 -0.938191 0
-0.346117 -0.938191 0
-0.382683 -0.92388 0
-0.382683 -0.92388 0
-0.41866 -0.908143 0
-0.41866 -0.908143 0
-0.45399 -0.891007 0
-0.45399 -0.891007 0
-0.488621 -0.872496 0
-0.488621 -0.872496 0
-0.522499 -0.85264 0
-0.522499 -0.85264 0
-0.55557 -0.83147 0
-0.55557 -0.83147 0
-0.587785 -0.809017 0
-0.587785 -0.809017 0
-0.619094 -0.785317 0
-0.619094 -0.785317 0
-0.649448 -0.760406 0
-0.649448 -0.760406 0
-0.678801 -0.734323 0
-0.678801 -0.734323 0
-0.707107 -0.707107 0
-0.707107 -0.707107 0
-0.734323 -0.678801 0
-0.734323 -0.678801 0
-0.760406 -0.649448 0
-0.760406 -0.649448 0
-0.785317 -0.619094 0
-0.785317 -0.619094 0
-0.809017 -0.587785 0
-0.809017 -0.587785 0
-0.83147 -0.55557 0
-0.83147 -0.55557 0
-0.85264 -0.522499 0
-0.85264 -0.522499 0
-0.872496 -0.488621 0
-0.872496 -0.488621 0
-0.891007 -0.45399 0
-0.891007 -0.45399 0
-0.908143 -0.41866 0
-0.908143 -0.41866 0
-0.92388 -0.382683 0
-0.92388 -0.382683 0
-0.938191 -0.346117 0
-0.938191 -0.346117 0
-0.951057 -0.309017 0
-0.951057 -0.309017 0
-0.962455 -0.27144 0
-0.962455 -0.27144 0
-0.97237 -0.233445 0
-0.97237 -0.233445 0
-0.980785 -0.19509 0
-0.980785 -0.19509 0
-0.987688 -0.156434 0
-0.987688 -0.156434 0
-0.993068 -0.117537 0
-0.993068 -0.117537 0
-0.996917 -0.0784591 0
-0.996917 -0.0784591 0
-0.999229 -0.0392598 0
-0.999229 -0.0392598 0
-1 -2.77556e-16 0
-1 -2.77556e-16 0
-0.999229 0.0392598 0
-0.999229 0.0392598 0
-0.996917 0.0784591 0
-0.996917 0.0784591 0
-0.993068 0.117537 0
-0.993068 0.117537 0
-0.987688 0.156434 0
-0.987688 0.156434 0
-0.980785 0.19509 0
-0.980785 0.19509 0
-0.97237 0.233445 0
-0.97237 0.233445 0
-0.962455 0.27144 0
-0.962455 0.27144 0
-0.951057 0.309017 0
-0.951057 0.309017 0
-0.938191 0.346117 0
-0.938191 0.346117 0
-0.92388 0.382683 0
-0.92388 0.382683 0
-0.908143 0.41866 0
-0.908143 0.41866 0
-0.891007 0.45399 0
-0.891007 0.45399 0
-0.872496 0.488621 0
-0.872496 0.488621 0
-0.85264 0.522499 0
-0.85264 0.522499 0
-0.83147 0.55557 0
-0.83147 0.55557 0
-0.809017 0.587785 0
-0.809017 0.587785 0
-0.785317 0.619094 0
-0.785317 0.619094 0
-0.760406 0.649448 0
-0.760406 0.649448 0
-0.734323 0.678801 0
-0.734323 0.678801 0
-0.707107 0.707107 0
-0.707107 0.707107 0
-0.678801 0.734323 0
-0.678801 0.734323 0
-0.649448 0.760406 0
-0.649448 0.760406 0
-0.619094 0.785317 0
-0.619094 0.785317 0
-0.587785 0.809017 0
-0.587785 0.809017 0
-0.55557 0.83147 0
-0.55557 0.83147 0
-0.522499 0.85264 0
-0.522499 0.85264 0
-0.488621 0.872496 0
-0.488621 0.872496 0
-0.45399 0.891007 0
-0.45399 0.891007 0
-0.41866 0.908143 0
-0.41866 0.908143 0
-0.382683 0.92388 0
-0.382683 0.92388 0
-0.346117 0.938191 0
-0.346117 0.938191 0
-0.309017 0.951057 0
-0.309017 0.951057 0
-0.27144 0.962455 0
-0.27144 0.962455 0
-0.233445 0.97237 0
-0.233445 0.97237 0
-0.19509 0.980785 0
-0.19509 0.980785 0
-0.156434 0.987688 0
-0.156434 0.987688 0
-0.117537 0.993068 0
-0.117537 0.993068 0
-0.0784591 0.996917 0
-0.0784591 0.996917 0
-0.0392598 0.999229 0
-0.0392598 0.999229 0
0 1 0

CELLS 160 480
2	0	1
2	2	3
2	4	5
2	6	7
2	8	9
2	10	11
2	12	13
2	14	15
2	16	17
2	18	19
2	20	21
2	22	23
2	24	25
2	26	27
2	28	29
2	30	31
2	32	33
2	34	35
2	36	37
2	38	39
2	40	41
2	42	43
2	44	45
2	46	47
2	48	49
2	50	51
2	52	53
2	54	55
2	56	57
2	58	59
2	60	61
2	62	63
2	64	65
2	66	67
2	68	69
2	70	71
2	72	73
2	74	75
2	76	77
2	78	79
2	80	81
2	82	83
2	84	85
2	86	87
2	88	89
2	90	91
2	92	93
2	94	95
2	96	97
2	98	99
2	100	101
2	102	103
2	104	105
2	106	107
2	108	109
2	110	111
2	112	113
2	114	115
2	116	117
2	118	119
2	120	121
2	122	123
2	124	125
2	126	127
2	128	129
2	130	131
2	132	133
2	134	135
2	136	137
2	138	139
2	140	141
2	142	143
2	144	145
2	146	147
2	148	149
2	150	151
2	152	153
2	154	155
2	156	157
2	158	159
2	160	161
2	162	163
2	164	165
2	166	167
2	168	169
2	170	171
2	172	173
2	174	175
2	176	177
2	178	179
2	180	181
2	182	183
2	184	185
2	186	187
2	188	189
2	190	191
2	192	193
2	194	195
2	196	197
2	198	199
2	200	201
2	202	203
2	204	205
2	206	207
2	208	209
2	210	211
2	212	213
2	214	215
2	216	217
2	218	219
2	220	221
2	222	223
2	224	225
2	226	227
2	228	229
2	230	231
2	232	233
2	234	235
2	236	237
2	238	239
2	240	241
2	242	243
2	244	245
2	246	247
2	248	249
2	250	251
2	252	253
2	254	255
2	256	257
2	258	259
2	260	261
2	262	263
2	264	265
2	266	267
2	268	269
2	270	271
2	272	273
2	274	275
2	276	277
2	278	279
2	280	281
2	282	283
2	284	285
2	286	287
2	288	289
2	290	291
2	292	293
2	294	295
2	296	297
2	298	299
2	300	301
2	302	303
2	304	305
2	306	307
2	308	309
2	310	311
2	312	313
2	314	315
2	316	317
2	318	319

CELL_TYPES 160
 3 3 3 3 3 3 3 3 3 3 3 3 3 3 3 3 3 3 3 3 3 3 3 3 3 3 3 3 3 3 3 3 3 3 3 3 3 3 3 3 3 3 3 3 3 3 3 3 3 3 3 3 3 3 3 3 3 3 3 3 3 3 3 3 3 3 3 3 3 3 3 3 3 3 3 3 3 3 3 3 3 3 3 3 3 3 3 3 3 3 3 3 3 3 3 3 3 3 3 3 3 3 3 3 3 3 3 3 3 3 3 3 3 3 3 3 3 3 3 3 3 3 3 3 3 3 3 3 3 3 3 3 3 3 3 3 3 3 3 3 3 3 3 3 3 3 3 3 3 3 3 3 3 3 3 3 3 3 3 3
POINT_DATA 320
SCALARS phi double 1
LOOKUP_TABLE default
0.99974 1.03822 1.03822 1.0751 1.0751 1.11032 1.11032 1.14382 1.14382 1.17557 1.17557 1.2055 1.2055 1.23357 1.23357 1.25975 1.25975 1.28397 1.28397 1.30622 1.30622 1.32646 1.32646 1.34465 1.34465 1.36076 1.36076 1.37478 1.37478 1.38668 1.38668 1.39644 1.39644 1.40404 1.40404 1.40949 1.40949 1.41276 1.41276 1.41385 1.41385 1.41276 1.41276 1.40949 1.40949 1.40404 1.40404 1.39644 1.39644 1.38668 1.38668 1.37478 1.37478 1.36076 1.36076 1.34465 1.34465 1.32646 1.32646 1.30622 1.30622 1.28397 1.28397 1.25975 1.25975 1.23357 1.23357 1.2055 1.2055 1.17557 1.17557 1.14382 1.14382 1.11032 1.11032 1.0751 1.0751 1.03822 1.03822 0.99974 0.99974 0.959719 0.959719 0.918219 0.918219 0.875303 0.875303 0.831037 0.831037 0.78549 0.78549 0.738732 0.738732 0.690835 0.690835 0.641872 0.641872 0.59192 0.59192 0.541055 0.541055 0.489356 0.489356 0.436902 0.436902 0.383775 0.383775 0.330056 0.330056 0.275827 0.275827 0.221174 0.221174 0.16618 0.16618 0.110929 0.110929 0.0555073 0.0555073 -4.88949e-13 -4.88949e-13 -0.0555073 -0.0555073 -0.110929 -0.110929 -0.16618 -0.16618 -0.221174 -0.221174 -0.275827 -0.275827 -0.330056 -0.330056 -0.383775 -0.383775 -0.436902 -0.436902 -0.489356 -0.489356 -0.541055 -0.541055 -0.59192 -0.59192 -0.641872 -0.641872 -0.690835 -0.690835 -0.738732 -0.738732 -0.78549 -0.78549 -0.831037 -0.831037 -0.875303 -0.875303 -0.918219 -0.918219 -0.959719 -0.959719 -0.99974 -0.99974 -1.03822 -1.03822 -1.0751 -1.0751 -1.11032 -1.11032 -1.14382 -1.14382 -1.17557 -1.17557 -1.2055 -1.2055 -1.23357 -1.23357 -1.25975 -1.25975 -1.28397 -1.28397 -1.30622 -1.30622 -1.32646 -1.32646 -1.34465 -1.34465 -1.36076 -1.36076 -1.37478 -1.37478 -1.38668 -1.38668 -1.39644 -1.39644 -1.40404 -1.40404 -1.40949 -1.40949 -1.41276 -1.41276 -1.41385 -1.41385 -1.41276 -1.41276 -1.40949 -1.40949 -1.40404 -1.40404 -1.39644 -1.39644 -1.38668 -1.38668 -1.37478 -1.37478 -1.36076 -1.36076 -1.34465 -1.34465 -1.32646 -1.32646 -1.30622 -1.30622 -1.28397 -1.28397 -1.25975 -1.25975 -1.23357 -1.23357 -1.2055 -1.2055 -1.17557 -1.17557 -1.14382 -1.14382 -1.11032 -1.11032 -1.0751 -1.0751 -1.03822 -1.03822 -0.99974 -0.99974 -0.959719 -0.959719 -0.918219 -0.918219 -0.875303 -0.875303 -0.831037 -0.831037 -0.78549 -0.78549 -0.738732 -0.738732 -0.690835 -0.690835 -0.641872 -0.641872 -0.59192 -0.59192 -0.541055 -0.541055 -0.489356 -0.489356 -0.436902 -0.436902 -0.383775 -0.383775 -0.330056 -0.330056 -0.275827 -0.275827 -0.221174 -0.221174 -0.16618 -0.16618 -0.110929 -0.110929 -0.0555073 -0.0555073 4.89105e-13 4.89105e-13 0.0555073 0.0555073 0.110929 0.110929 0.16618 0.16618 0.221174 0.221174 0.275827 0.275827 0.330056 0.330056 0.383775 0.383775 0.436902 0.436902 0.489356 0.489356 0.541055 0.541055 0.59192 0.59192 0.641872 0.641872 0.690835 0.690835 0.738732 0.738732 0.78549 0.78549 0.831037 0.831037 0.875303 0.875303 0.918219 0.918219 0.959719 0.959719 0.99974 
SCALARS alpha double 1
LOOKUP_TABLE default
0.50625 0.50625 0.50625 0.50625 0.50625 0.50625 0.50625 0.50625 0.50625 0.50625 0.50625 0.50625 0.50625 0.50625 0.50625 0.50625 0.50625 0.50625 0.50625 0.50625 0.50625 0.50625 0.50625 0.50625 0.50625 0.50625 0.50625 0.50625 0.50625 0.50625 0.50625 0.50625 0.50625 0.50625 0.50625 0.50625 0.50625 0.50625 0.50625 0.50625 0.50625 0.50625 0.50625 0.50625 0.50625 0.50625 0.50625 0.50625 0.50625 0.50625 0.50625 0.50625 0.50625 0.50625 0.50625 0.50625 0.50625 0.50625 0.50625 0.50625 0.50625 0.50625 0.50625 0.50625 0.50625 0.50625 0.50625 0.50625 0.50625 0.50625 0.50625 0.50625 0.50625 0.50625 0.50625 0.50625 0.50625 0.50625 0.50625 0.50625 0.50625 0.50625 0.50625 0.50625 0.50625 0.50625 0.50625 0.50625 0.50625 0.50625 0.50625 0.50625 0.50625 0.50625 0.50625 0.50625 0.50625 0.50625 0.50625 0.50625 0.50625 0.50625 0.50625 0.50625 0.50625 0.50625 0.50625 0.50625 0.50625 0.50625 0.50625 0.50625 0.50625 0.50625 0.50625 0.50625 0.50625 0.50625 0.50625 0.50625 0.50625 0.50625 0.50625 0.50625 0.50625 0.50625 0.50625 0.50625 0.50625 0.50625 0.50625 0.50625 0.50625 0.50625 0.50625 0.50625 0.50625 0.50625 0.50625 0.50625 0.50625 0.50625 0.50625 0.50625 0.50625 0.50625 0.50625 0.50625 0.50625 0.50625 0.50625 0.50625 0.50625 0.50625 0.50625 0.50625 0.50625 0.50625 0.50625 0.50625 0.50625 0.50625 0.50625 0.50625 0.50625 0.50625 0.50625 0.50625 0.50625 0.50625 0.50625 0.50625 0.50625 0.50625 0.50625 0.50625 0.50625 0.50625 0.50625 0.50625 0.50625 0.50625 0.50625 0.50625 0.50625 0.50625 0.50625 0.50625 0.50625 0.50625 0.50625 0.50625 0.50625 0.50625 0.50625 0.50625 0.50625 0.50625 0.50625 0.50625 0.50625 0.50625 0.50625 0.50625 0.50625 0.50625 0.50625 0.50625 0.50625 0.50625 0.50625 0.50625 0.50625 0.50625 0.50625 0.50625 0.50625 0.50625 0.50625 0.50625 0.50625 0.50625 0.50625 0.50625 0.50625 0.50625 0.50625 0.50625 0.50625 0.50625 0.50625 0.50625 0.50625 0.50625 0.50625 0.50625 0.50625 0.50625 0.50625 0.50625 0.50625 0.50625 0.50625 0.50625 0.50625 0.50625 0.50625 0.50625 0.50625 0.50625 0.50625 0.50625 0.50625 0.50625 0.50625 0.50625 0.50625 0.50625 0.50625 0.50625 0.50625 0.50625 0.50625 0.50625 0.50625 0.50625 0.50625 0.50625 0.50625 0.50625 0.50625 0.50625 0.50625 0.50625 0.50625 0.50625 0.50625 0.50625 0.50625 0.50625 0.50625 0.50625 0.50625 0.50625 0.50625 0.50625 0.50625 0.50625 0.50625 0.50625 0.50625 0.50625 0.50625 0.50625 0.50625 0.50625 0.50625 0.50625 0.50625 0.50625 0.50625 0.50625 0.50625 0.50625 0.50625 0.50625 0.50625 0.50625 0.50625 0.50625 0.50625 0.50625 0.50625 0.50625 0.50625 0.50625 0.50625 0.50625 0.50625 0.50625 
