# vtk DataFile Version 3.0
#This file was generated by the deal.II library on 2020/7/10 at 23:10:07
ASCII
DATASET UNSTRUCTURED_GRID

POINTS 160 double
0 1 0
0.0784591 0.996917 0
0.0784591 0.996917 0
0.156434 0.987688 0
0.156434 0.987688 0
0.233445 0.97237 0
0.233445 0.97237 0
0.309017 0.951057 0
0.309017 0.951057 0
0.382683 0.92388 0
0.382683 0.92388 0
0.45399 0.891007 0
0.45399 0.891007 0
0.522499 0.85264 0
0.522499 0.85264 0
0.587785 0.809017 0
0.587785 0.809017 0
0.649448 0.760406 0
0.649448 0.760406 0
0.707107 0.707107 0
0.707107 0.707107 0
0.760406 0.649448 0
0.760406 0.649448 0
0.809017 0.587785 0
0.809017 0.587785 0
0.85264 0.522499 0
0.85264 0.522499 0
0.891007 0.45399 0
0.891007 0.45399 0
0.92388 0.382683 0
0.92388 0.382683 0
0.951057 0.309017 0
0.951057 0.309017 0
0.97237 0.233445 0
0.97237 0.233445 0
0.987688 0.156434 0
0.987688 0.156434 0
0.996917 0.0784591 0
0.996917 0.0784591 0
1 2.77556e-16 0
1 2.77556e-16 0
0.996917 -0.0784591 0
0.996917 -0.0784591 0
0.987688 -0.156434 0
0.987688 -0.156434 0
0.97237 -0.233445 0
0.97237 -0.233445 0
0.951057 -0.309017 0
0.951057 -0.309017 0
0.92388 -0.382683 0
0.92388 -0.382683 0
0.891007 -0.45399 0
0.891007 -0.45399 0
0.85264 -0.522499 0
0.85264 -0.522499 0
0.809017 -0.587785 0
0.809017 -0.587785 0
0.760406 -0.649448 0
0.760406 -0.649448 0
0.707107 -0.707107 0
0.707107 -0.707107 0
0.649448 -0.760406 0
0.649448 -0.760406 0
0.587785 -0.809017 0
0.587785 -0.809017 0
0.522499 -0.85264 0
0.522499 -0.85264 0
0.45399 -0.891007 0
0.45399 -0.891007 0
0.382683 -0.92388 0
0.382683 -0.92388 0
0.309017 -0.951057 0
0.309017 -0.951057 0
0.233445 -0.97237 0
0.233445 -0.97237 0
0.156434 -0.987688 0
0.156434 -0.987688 0
0.0784591 -0.996917 0
0.0784591 -0.996917 0
0 -1 0
0 -1 0
-0.0784591 -0.996917 0
-0.0784591 -0.996917 0
-0.156434 -0.987688 0
-0.156434 -0.987688 0
-0.233445 -0.97237 0
-0.233445 -0.97237 0
-0.309017 -0.951057 0
-0.309017 -0.951057 0
-0.382683 -0.92388 0
-0.382683 -0.92388 0
-0.45399 -0.891007 0
-0.45399 -0.891007 0
-0.522499 -0.85264 0
-0.522499 -0.85264 0
-0.587785 -0.809017 0
-0.587785 -0.809017 0
-0.649448 -0.760406 0
-0.649448 -0.760406 0
-0.707107 -0.707107 0
-0.707107 -0.707107 0
-0.760406 -0.649448 0
-0.760406 -0.649448 0
-0.809017 -0.587785 0
-0.809017 -0.587785 0
-0.85264 -0.522499 0
-0.85264 -0.522499 0
-0.891007 -0.45399 0
-0.891007 -0.45399 0
-0.92388 -0.382683 0
-0.92388 -0.382683 0
-0.951057 -0.309017 0
-0.951057 -0.309017 0
-0.97237 -0.233445 0
-0.97237 -0.233445 0
-0.987688 -0.156434 0
-0.987688 -0.156434 0
-0.996917 -0.0784591 0
-0.996917 -0.0784591 0
-1 -2.77556e-16 0
-1 -2.77556e-16 0
-0.996917 0.0784591 0
-0.996917 0.0784591 0
-0.987688 0.156434 0
-0.987688 0.156434 0
-0.97237 0.233445 0
-0.97237 0.233445 0
-0.951057 0.309017 0
-0.951057 0.309017 0
-0.92388 0.382683 0
-0.92388 0.382683 0
-0.891007 0.45399 0
-0.891007 0.45399 0
-0.85264 0.522499 0
-0.85264 0.522499 0
-0.809017 0.587785 0
-0.809017 0.587785 0
-0.760406 0.649448 0
-0.760406 0.649448 0
-0.707107 0.707107 0
-0.707107 0.707107 0
-0.649448 0.760406 0
-0.649448 0.760406 0
-0.587785 0.809017 0
-0.587785 0.809017 0
-0.522499 0.85264 0
-0.522499 0.85264 0
-0.45399 0.891007 0
-0.45399 0.891007 0
-0.382683 0.92388 0
-0.382683 0.92388 0
-0.309017 0.951057 0
-0.309017 0.951057 0
-0.233445 0.97237 0
-0.233445 0.97237 0
-0.156434 0.987688 0
-0.156434 0.987688 0
-0.0784591 0.996917 0
-0.0784591 0.996917 0
0 1 0

CELLS 80 240
2	0	1
2	2	3
2	4	5
2	6	7
2	8	9
2	10	11
2	12	13
2	14	15
2	16	17
2	18	19
2	20	21
2	22	23
2	24	25
2	26	27
2	28	29
2	30	31
2	32	33
2	34	35
2	36	37
2	38	39
2	40	41
2	42	43
2	44	45
2	46	47
2	48	49
2	50	51
2	52	53
2	54	55
2	56	57
2	58	59
2	60	61
2	62	63
2	64	65
2	66	67
2	68	69
2	70	71
2	72	73
2	74	75
2	76	77
2	78	79
2	80	81
2	82	83
2	84	85
2	86	87
2	88	89
2	90	91
2	92	93
2	94	95
2	96	97
2	98	99
2	100	101
2	102	103
2	104	105
2	106	107
2	108	109
2	110	111
2	112	113
2	114	115
2	116	117
2	118	119
2	120	121
2	122	123
2	124	125
2	126	127
2	128	129
2	130	131
2	132	133
2	134	135
2	136	137
2	138	139
2	140	141
2	142	143
2	144	145
2	146	147
2	148	149
2	150	151
2	152	153
2	154	155
2	156	157
2	158	159

CELL_TYPES 80
 3 3 3 3 3 3 3 3 3 3 3 3 3 3 3 3 3 3 3 3 3 3 3 3 3 3 3 3 3 3 3 3 3 3 3 3 3 3 3 3 3 3 3 3 3 3 3 3 3 3 3 3 3 3 3 3 3 3 3 3 3 3 3 3 3 3 3 3 3 3 3 3 3 3 3 3 3 3 3 3
POINT_DATA 160
SCALARS phi double 1
LOOKUP_TABLE default
0.998945 1.07424 1.07424 1.14292 1.14292 1.20454 1.20454 1.25874 1.25874 1.30518 1.30518 1.34358 1.34358 1.37369 1.37369 1.39533 1.39533 1.40837 1.40837 1.41272 1.41272 1.40837 1.40837 1.39533 1.39533 1.37369 1.37369 1.34358 1.34358 1.30518 1.30518 1.25874 1.25874 1.20454 1.20454 1.14292 1.14292 1.07424 1.07424 0.998945 0.998945 0.917489 0.917489 0.830377 0.830377 0.738145 0.738145 0.641362 0.641362 0.540625 0.540625 0.436555 0.436555 0.329793 0.329793 0.220998 0.220998 0.110841 0.110841 -4.88073e-13 -4.88073e-13 -0.110841 -0.110841 -0.220998 -0.220998 -0.329793 -0.329793 -0.436555 -0.436555 -0.540625 -0.540625 -0.641362 -0.641362 -0.738145 -0.738145 -0.830377 -0.830377 -0.917489 -0.917489 -0.998945 -0.998945 -1.07424 -1.07424 -1.14292 -1.14292 -1.20454 -1.20454 -1.25874 -1.25874 -1.30518 -1.30518 -1.34358 -1.34358 -1.37369 -1.37369 -1.39533 -1.39533 -1.40837 -1.40837 -1.41272 -1.41272 -1.40837 -1.40837 -1.39533 -1.39533 -1.37369 -1.37369 -1.34358 -1.34358 -1.30518 -1.30518 -1.25874 -1.25874 -1.20454 -1.20454 -1.14292 -1.14292 -1.07424 -1.07424 -0.998945 -0.998945 -0.917489 -0.917489 -0.830377 -0.830377 -0.738145 -0.738145 -0.641362 -0.641362 -0.540625 -0.540625 -0.436555 -0.436555 -0.329793 -0.329793 -0.220998 -0.220998 -0.110841 -0.110841 4.87936e-13 4.87936e-13 0.110841 0.110841 0.220998 0.220998 0.329793 0.329793 0.436555 0.436555 0.540625 0.540625 0.641362 0.641362 0.738145 0.738145 0.830377 0.830377 0.917489 0.917489 0.998945 
SCALARS alpha double 1
LOOKUP_TABLE default
0.5125 0.5125 0.5125 0.5125 0.5125 0.5125 0.5125 0.5125 0.5125 0.5125 0.5125 0.5125 0.5125 0.5125 0.5125 0.5125 0.5125 0.5125 0.5125 0.5125 0.5125 0.5125 0.5125 0.5125 0.5125 0.5125 0.5125 0.5125 0.5125 0.5125 0.5125 0.5125 0.5125 0.5125 0.5125 0.5125 0.5125 0.5125 0.5125 0.5125 0.5125 0.5125 0.5125 0.5125 0.5125 0.5125 0.5125 0.5125 0.5125 0.5125 0.5125 0.5125 0.5125 0.5125 0.5125 0.5125 0.5125 0.5125 0.5125 0.5125 0.5125 0.5125 0.5125 0.5125 0.5125 0.5125 0.5125 0.5125 0.5125 0.5125 0.5125 0.5125 0.5125 0.5125 0.5125 0.5125 0.5125 0.5125 0.5125 0.5125 0.5125 0.5125 0.5125 0.5125 0.5125 0.5125 0.5125 0.5125 0.5125 0.5125 0.5125 0.5125 0.5125 0.5125 0.5125 0.5125 0.5125 0.5125 0.5125 0.5125 0.5125 0.5125 0.5125 0.5125 0.5125 0.5125 0.5125 0.5125 0.5125 0.5125 0.5125 0.5125 0.5125 0.5125 0.5125 0.5125 0.5125 0.5125 0.5125 0.5125 0.5125 0.5125 0.5125 0.5125 0.5125 0.5125 0.5125 0.5125 0.5125 0.5125 0.5125 0.5125 0.5125 0.5125 0.5125 0.5125 0.5125 0.5125 0.5125 0.5125 0.5125 0.5125 0.5125 0.5125 0.5125 0.5125 0.5125 0.5125 0.5125 0.5125 0.5125 0.5125 0.5125 0.5125 0.5125 0.5125 0.5125 0.5125 0.5125 0.5125 
