# vtk DataFile Version 3.0
#This file was generated by the deal.II library on 2020/7/10 at 23:10:07
ASCII
DATASET UNSTRUCTURED_GRID

POINTS 80 double
0 1 0
0.156434 0.987688 0
0.156434 0.987688 0
0.309017 0.951057 0
0.309017 0.951057 0
0.45399 0.891007 0
0.45399 0.891007 0
0.587785 0.809017 0
0.587785 0.809017 0
0.707107 0.707107 0
0.707107 0.707107 0
0.809017 0.587785 0
0.809017 0.587785 0
0.891007 0.45399 0
0.891007 0.45399 0
0.951057 0.309017 0
0.951057 0.309017 0
0.987688 0.156434 0
0.987688 0.156434 0
1 2.77556e-16 0
1 2.77556e-16 0
0.987688 -0.156434 0
0.987688 -0.156434 0
0.951057 -0.309017 0
0.951057 -0.309017 0
0.891007 -0.45399 0
0.891007 -0.45399 0
0.809017 -0.587785 0
0.809017 -0.587785 0
0.707107 -0.707107 0
0.707107 -0.707107 0
0.587785 -0.809017 0
0.587785 -0.809017 0
0.45399 -0.891007 0
0.45399 -0.891007 0
0.309017 -0.951057 0
0.309017 -0.951057 0
0.156434 -0.987688 0
0.156434 -0.987688 0
0 -1 0
0 -1 0
-0.156434 -0.987688 0
-0.156434 -0.987688 0
-0.309017 -0.951057 0
-0.309017 -0.951057 0
-0.45399 -0.891007 0
-0.45399 -0.891007 0
-0.587785 -0.809017 0
-0.587785 -0.809017 0
-0.707107 -0.707107 0
-0.707107 -0.707107 0
-0.809017 -0.587785 0
-0.809017 -0.587785 0
-0.891007 -0.45399 0
-0.891007 -0.45399 0
-0.951057 -0.309017 0
-0.951057 -0.309017 0
-0.987688 -0.156434 0
-0.987688 -0.156434 0
-1 -2.77556e-16 0
-1 -2.77556e-16 0
-0.987688 0.156434 0
-0.987688 0.156434 0
-0.951057 0.309017 0
-0.951057 0.309017 0
-0.891007 0.45399 0
-0.891007 0.45399 0
-0.809017 0.587785 0
-0.809017 0.587785 0
-0.707107 0.707107 0
-0.707107 0.707107 0
-0.587785 0.809017 0
-0.587785 0.809017 0
-0.45399 0.891007 0
-0.45399 0.891007 0
-0.309017 0.951057 0
-0.309017 0.951057 0
-0.156434 0.987688 0
-0.156434 0.987688 0
0 1 0

CELLS 40 120
2	0	1
2	2	3
2	4	5
2	6	7
2	8	9
2	10	11
2	12	13
2	14	15
2	16	17
2	18	19
2	20	21
2	22	23
2	24	25
2	26	27
2	28	29
2	30	31
2	32	33
2	34	35
2	36	37
2	38	39
2	40	41
2	42	43
2	44	45
2	46	47
2	48	49
2	50	51
2	52	53
2	54	55
2	56	57
2	58	59
2	60	61
2	62	63
2	64	65
2	66	67
2	68	69
2	70	71
2	72	73
2	74	75
2	76	77
2	78	79

CELL_TYPES 40
 3 3 3 3 3 3 3 3 3 3 3 3 3 3 3 3 3 3 3 3 3 3 3 3 3 3 3 3 3 3 3 3 3 3 3 3 3 3 3 3
POINT_DATA 80
SCALARS phi double 1
LOOKUP_TABLE default
0.995677 1.13918 1.13918 1.25463 1.25463 1.33918 1.33918 1.39076 1.39076 1.4081 1.4081 1.39076 1.39076 1.33918 1.33918 1.25463 1.25463 1.13918 1.13918 0.995677 0.995677 0.82766 0.82766 0.639264 0.639264 0.435127 0.435127 0.220275 0.220275 -4.83832e-13 -4.83832e-13 -0.220275 -0.220275 -0.435127 -0.435127 -0.639264 -0.639264 -0.82766 -0.82766 -0.995677 -0.995677 -1.13918 -1.13918 -1.25463 -1.25463 -1.33918 -1.33918 -1.39076 -1.39076 -1.4081 -1.4081 -1.39076 -1.39076 -1.33918 -1.33918 -1.25463 -1.25463 -1.13918 -1.13918 -0.995677 -0.995677 -0.82766 -0.82766 -0.639264 -0.639264 -0.435127 -0.435127 -0.220275 -0.220275 4.83855e-13 4.83855e-13 0.220275 0.220275 0.435127 0.435127 0.639264 0.639264 0.82766 0.82766 0.995677 
SCALARS alpha double 1
LOOKUP_TABLE default
0.525 0.525 0.525 0.525 0.525 0.525 0.525 0.525 0.525 0.525 0.525 0.525 0.525 0.525 0.525 0.525 0.525 0.525 0.525 0.525 0.525 0.525 0.525 0.525 0.525 0.525 0.525 0.525 0.525 0.525 0.525 0.525 0.525 0.525 0.525 0.525 0.525 0.525 0.525 0.525 0.525 0.525 0.525 0.525 0.525 0.525 0.525 0.525 0.525 0.525 0.525 0.525 0.525 0.525 0.525 0.525 0.525 0.525 0.525 0.525 0.525 0.525 0.525 0.525 0.525 0.525 0.525 0.525 0.525 0.525 0.525 0.525 0.525 0.525 0.525 0.525 0.525 0.525 0.525 0.525 
