# vtk DataFile Version 3.0
#This file was generated by the deal.II library on 2020/7/10 at 23:10:19
ASCII
DATASET UNSTRUCTURED_GRID

POINTS 384 double
0.57735 -0.57735 -0.57735
0.302905 -0.673887 -0.673887
0.673887 -0.302905 -0.673887
0.363503 -0.363503 -0.857748
0.302905 -0.673887 -0.673887
-5.55112e-17 -0.707107 -0.707107
0.363503 -0.363503 -0.857748
-6.59413e-17 -0.382683 -0.92388
0.673887 -0.302905 -0.673887
0.363503 -0.363503 -0.857748
0.707107 5.55112e-17 -0.707107
0.382683 6.59413e-17 -0.92388
0.363503 -0.363503 -0.857748
-6.59413e-17 -0.382683 -0.92388
0.382683 6.59413e-17 -0.92388
-6.63324e-17 6.63324e-17 -1
-5.55112e-17 -0.707107 -0.707107
-0.302905 -0.673887 -0.673887
-6.59413e-17 -0.382683 -0.92388
-0.363503 -0.363503 -0.857748
-0.302905 -0.673887 -0.673887
-0.57735 -0.57735 -0.57735
-0.363503 -0.363503 -0.857748
-0.673887 -0.302905 -0.673887
-6.59413e-17 -0.382683 -0.92388
-0.363503 -0.363503 -0.857748
-6.63324e-17 6.63324e-17 -1
-0.382683 6.59413e-17 -0.92388
-0.363503 -0.363503 -0.857748
-0.673887 -0.302905 -0.673887
-0.382683 6.59413e-17 -0.92388
-0.707107 5.55112e-17 -0.707107
0.707107 5.55112e-17 -0.707107
0.382683 6.59413e-17 -0.92388
0.673887 0.302905 -0.673887
0.363503 0.363503 -0.857748
0.382683 6.59413e-17 -0.92388
-6.63324e-17 6.63324e-17 -1
0.363503 0.363503 -0.857748
-6.59413e-17 0.382683 -0.92388
0.673887 0.302905 -0.673887
0.363503 0.363503 -0.857748
0.57735 0.57735 -0.57735
0.302905 0.673887 -0.673887
0.363503 0.363503 -0.857748
-6.59413e-17 0.382683 -0.92388
0.302905 0.673887 -0.673887
-5.55112e-17 0.707107 -0.707107
-6.63324e-17 6.63324e-17 -1
-0.382683 6.59413e-17 -0.92388
-6.59413e-17 0.382683 -0.92388
-0.363503 0.363503 -0.857748
-0.382683 6.59413e-17 -0.92388
-0.707107 5.55112e-17 -0.707107
-0.363503 0.363503 -0.857748
-0.673887 0.302905 -0.673887
-6.59413e-17 0.382683 -0.92388
-0.363503 0.363503 -0.857748
-5.55112e-17 0.707107 -0.707107
-0.302905 0.673887 -0.673887
-0.363503 0.363503 -0.857748
-0.673887 0.302905 -0.673887
-0.302905 0.673887 -0.673887
-0.57735 0.57735 -0.57735
0.57735 -0.57735 0.57735
0.673887 -0.302905 0.673887
0.302905 -0.673887 0.673887
0.363503 -0.363503 0.857748
0.673887 -0.302905 0.673887
0.707107 5.55112e-17 0.707107
0.363503 -0.363503 0.857748
0.382683 6.59413e-17 0.92388
0.302905 -0.673887 0.673887
0.363503 -0.363503 0.857748
-5.55112e-17 -0.707107 0.707107
-6.59413e-17 -0.382683 0.92388
0.363503 -0.363503 0.857748
0.382683 6.59413e-17 0.92388
-6.59413e-17 -0.382683 0.92388
-6.63324e-17 6.63324e-17 1
0.707107 5.55112e-17 0.707107
0.673887 0.302905 0.673887
0.382683 6.59413e-17 0.92388
0.363503 0.363503 0.857748
0.673887 0.302905 0.673887
0.57735 0.57735 0.57735
0.363503 0.363503 0.857748
0.302905 0.673887 0.673887
0.382683 6.59413e-17 0.92388
0.363503 0.363503 0.857748
-6.63324e-17 6.63324e-17 1
-6.59413e-17 0.382683 0.92388
0.363503 0.363503 0.857748
0.302905 0.673887 0.673887
-6.59413e-17 0.382683 0.92388
-5.55112e-17 0.707107 0.707107
-5.55112e-17 -0.707107 0.707107
-6.59413e-17 -0.382683 0.92388
-0.302905 -0.673887 0.673887
-0.363503 -0.363503 0.857748
-6.59413e-17 -0.382683 0.92388
-6.63324e-17 6.63324e-17 1
-0.363503 -0.363503 0.857748
-0.382683 6.59413e-17 0.92388
-0.302905 -0.673887 0.673887
-0.363503 -0.363503 0.857748
-0.57735 -0.57735 0.57735
-0.673887 -0.302905 0.673887
-0.363503 -0.363503 0.857748
-0.382683 6.59413e-17 0.92388
-0.673887 -0.302905 0.673887
-0.707107 5.55112e-17 0.707107
-6.63324e-17 6.63324e-17 1
-6.59413e-17 0.382683 0.92388
-0.382683 6.59413e-17 0.92388
-0.363503 0.363503 0.857748
-6.59413e-17 0.382683 0.92388
-5.55112e-17 0.707107 0.707107
-0.363503 0.363503 0.857748
-0.302905 0.673887 0.673887
-0.382683 6.59413e-17 0.92388
-0.363503 0.363503 0.857748
-0.707107 5.55112e-17 0.707107
-0.673887 0.302905 0.673887
-0.363503 0.363503 0.857748
-0.302905 0.673887 0.673887
-0.673887 0.302905 0.673887
-0.57735 0.57735 0.57735
0.57735 -0.57735 0.57735
0.302905 -0.673887 0.673887
0.673887 -0.673887 0.302905
0.363503 -0.857748 0.363503
0.302905 -0.673887 0.673887
-5.55112e-17 -0.707107 0.707107
0.363503 -0.857748 0.363503
-6.59413e-17 -0.92388 0.382683
0.673887 -0.673887 0.302905
0.363503 -0.857748 0.363503
0.707107 -0.707107 -5.55112e-17
0.382683 -0.92388 -6.59413e-17
0.363503 -0.857748 0.363503
-6.59413e-17 -0.92388 0.382683
0.382683 -0.92388 -6.59413e-17
-6.63324e-17 -1 -6.63324e-17
-5.55112e-17 -0.707107 0.707107
-0.302905 -0.673887 0.673887
-6.59413e-17 -0.92388 0.382683
-0.363503 -0.857748 0.363503
-0.302905 -0.673887 0.673887
-0.57735 -0.57735 0.57735
-0.363503 -0.857748 0.363503
-0.673887 -0.673887 0.302905
-6.59413e-17 -0.92388 0.382683
-0.363503 -0.857748 0.363503
-6.63324e-17 -1 -6.63324e-17
-0.382683 -0.92388 -6.59413e-17
-0.363503 -0.857748 0.363503
-0.673887 -0.673887 0.302905
-0.382683 -0.92388 -6.59413e-17
-0.707107 -0.707107 -5.55112e-17
0.707107 -0.707107 -5.55112e-17
0.382683 -0.92388 -6.59413e-17
0.673887 -0.673887 -0.302905
0.363503 -0.857748 -0.363503
0.382683 -0.92388 -6.59413e-17
-6.63324e-17 -1 -6.63324e-17
0.363503 -0.857748 -0.363503
-6.59413e-17 -0.92388 -0.382683
0.673887 -0.673887 -0.302905
0.363503 -0.857748 -0.363503
0.57735 -0.57735 -0.57735
0.302905 -0.673887 -0.673887
0.363503 -0.857748 -0.363503
-6.59413e-17 -0.92388 -0.382683
0.302905 -0.673887 -0.673887
-5.55112e-17 -0.707107 -0.707107
-6.63324e-17 -1 -6.63324e-17
-0.382683 -0.92388 -6.59413e-17
-6.59413e-17 -0.92388 -0.382683
-0.363503 -0.857748 -0.363503
-0.382683 -0.92388 -6.59413e-17
-0.707107 -0.707107 -5.55112e-17
-0.363503 -0.857748 -0.363503
-0.673887 -0.673887 -0.302905
-6.59413e-17 -0.92388 -0.382683
-0.363503 -0.857748 -0.363503
-5.55112e-17 -0.707107 -0.707107
-0.302905 -0.673887 -0.673887
-0.363503 -0.857748 -0.363503
-0.673887 -0.673887 -0.302905
-0.302905 -0.673887 -0.673887
-0.57735 -0.57735 -0.57735
0.57735 0.57735 0.57735
0.673887 0.673887 0.302905
0.302905 0.673887 0.673887
0.363503 0.857748 0.363503
0.673887 0.673887 0.302905
0.707107 0.707107 -5.55112e-17
0.363503 0.857748 0.363503
0.382683 0.92388 -6.59413e-17
0.302905 0.673887 0.673887
0.363503 0.857748 0.363503
-5.55112e-17 0.707107 0.707107
-6.59413e-17 0.92388 0.382683
0.363503 0.857748 0.363503
0.382683 0.92388 -6.59413e-17
-6.59413e-17 0.92388 0.382683
-6.63324e-17 1 -6.63324e-17
0.707107 0.707107 -5.55112e-17
0.673887 0.673887 -0.302905
0.382683 0.92388 -6.59413e-17
0.363503 0.857748 -0.363503
0.673887 0.673887 -0.302905
0.57735 0.57735 -0.57735
0.363503 0.857748 -0.363503
0.302905 0.673887 -0.673887
0.382683 0.92388 -6.59413e-17
0.363503 0.857748 -0.363503
-6.63324e-17 1 -6.63324e-17
-6.59413e-17 0.92388 -0.382683
0.363503 0.857748 -0.363503
0.302905 0.673887 -0.673887
-6.59413e-17 0.92388 -0.382683
-5.55112e-17 0.707107 -0.707107
-5.55112e-17 0.707107 0.707107
-6.59413e-17 0.92388 0.382683
-0.302905 0.673887 0.673887
-0.363503 0.857748 0.363503
-6.59413e-17 0.92388 0.382683
-6.63324e-17 1 -6.63324e-17
-0.363503 0.857748 0.363503
-0.382683 0.92388 -6.59413e-17
-0.302905 0.673887 0.673887
-0.363503 0.857748 0.363503
-0.57735 0.57735 0.57735
-0.673887 0.673887 0.302905
-0.363503 0.857748 0.363503
-0.382683 0.92388 -6.59413e-17
-0.673887 0.673887 0.302905
-0.707107 0.707107 -5.55112e-17
-6.63324e-17 1 -6.63324e-17
-6.59413e-17 0.92388 -0.382683
-0.382683 0.92388 -6.59413e-17
-0.363503 0.857748 -0.363503
-6.59413e-17 0.92388 -0.382683
-5.55112e-17 0.707107 -0.707107
-0.363503 0.857748 -0.363503
-0.302905 0.673887 -0.673887
-0.382683 0.92388 -6.59413e-17
-0.363503 0.857748 -0.363503
-0.707107 0.707107 -5.55112e-17
-0.673887 0.673887 -0.302905
-0.363503 0.857748 -0.363503
-0.302905 0.673887 -0.673887
-0.673887 0.673887 -0.302905
-0.57735 0.57735 -0.57735
-0.57735 -0.57735 0.57735
-0.673887 -0.302905 0.673887
-0.673887 -0.673887 0.302905
-0.857748 -0.363503 0.363503
-0.673887 -0.302905 0.673887
-0.707107 5.55112e-17 0.707107
-0.857748 -0.363503 0.363503
-0.92388 6.59413e-17 0.382683
-0.673887 -0.673887 0.302905
-0.857748 -0.363503 0.363503
-0.707107 -0.707107 -5.55112e-17
-0.92388 -0.382683 -6.59413e-17
-0.857748 -0.363503 0.363503
-0.92388 6.59413e-17 0.382683
-0.92388 -0.382683 -6.59413e-17
-1 6.63324e-17 -6.63324e-17
-0.707107 5.55112e-17 0.707107
-0.673887 0.302905 0.673887
-0.92388 6.59413e-17 0.382683
-0.857748 0.363503 0.363503
-0.673887 0.302905 0.673887
-0.57735 0.57735 0.57735
-0.857748 0.363503 0.363503
-0.673887 0.673887 0.302905
-0.92388 6.59413e-17 0.382683
-0.857748 0.363503 0.363503
-1 6.63324e-17 -6.63324e-17
-0.92388 0.382683 -6.59413e-17
-0.857748 0.363503 0.363503
-0.673887 0.673887 0.302905
-0.92388 0.382683 -6.59413e-17
-0.707107 0.707107 -5.55112e-17
-0.707107 -0.707107 -5.55112e-17
-0.92388 -0.382683 -6.59413e-17
-0.673887 -0.673887 -0.302905
-0.857748 -0.363503 -0.363503
-0.92388 -0.382683 -6.59413e-17
-1 6.63324e-17 -6.63324e-17
-0.857748 -0.363503 -0.363503
-0.92388 6.59413e-17 -0.382683
-0.673887 -0.673887 -0.302905
-0.857748 -0.363503 -0.363503
-0.57735 -0.57735 -0.57735
-0.673887 -0.302905 -0.673887
-0.857748 -0.363503 -0.363503
-0.92388 6.59413e-17 -0.382683
-0.673887 -0.302905 -0.673887
-0.707107 5.55112e-17 -0.707107
-1 6.63324e-17 -6.63324e-17
-0.92388 0.382683 -6.59413e-17
-0.92388 6.59413e-17 -0.382683
-0.857748 0.363503 -0.363503
-0.92388 0.382683 -6.59413e-17
-0.707107 0.707107 -5.55112e-17
-0.857748 0.363503 -0.363503
-0.673887 0.673887 -0.302905
-0.92388 6.59413e-17 -0.382683
-0.857748 0.363503 -0.363503
-0.707107 5.55112e-17 -0.707107
-0.673887 0.302905 -0.673887
-0.857748 0.363503 -0.363503
-0.673887 0.673887 -0.302905
-0.673887 0.302905 -0.673887
-0.57735 0.57735 -0.57735
0.57735 -0.57735 0.57735
0.673887 -0.673887 0.302905
0.673887 -0.302905 0.673887
0.857748 -0.363503 0.363503
0.673887 -0.673887 0.302905
0.707107 -0.707107 -5.55112e-17
0.857748 -0.363503 0.363503
0.92388 -0.382683 -6.59413e-17
0.673887 -0.302905 0.673887
0.857748 -0.363503 0.363503
0.707107 5.55112e-17 0.707107
0.92388 6.59413e-17 0.382683
0.857748 -0.363503 0.363503
0.92388 -0.382683 -6.59413e-17
0.92388 6.59413e-17 0.382683
1 6.63324e-17 -6.63324e-17
0.707107 -0.707107 -5.55112e-17
0.673887 -0.673887 -0.302905
0.92388 -0.382683 -6.59413e-17
0.857748 -0.363503 -0.363503
0.673887 -0.673887 -0.302905
0.57735 -0.57735 -0.57735
0.857748 -0.363503 -0.363503
0.673887 -0.302905 -0.673887
0.92388 -0.382683 -6.59413e-17
0.857748 -0.363503 -0.363503
1 6.63324e-17 -6.63324e-17
0.92388 6.59413e-17 -0.382683
0.857748 -0.363503 -0.363503
0.673887 -0.302905 -0.673887
0.92388 6.59413e-17 -0.382683
0.707107 5.55112e-17 -0.707107
0.707107 5.55112e-17 0.707107
0.92388 6.59413e-17 0.382683
0.673887 0.302905 0.673887
0.857748 0.363503 0.363503
0.92388 6.59413e-17 0.382683
1 6.63324e-17 -6.63324e-17
0.857748 0.363503 0.363503
0.92388 0.382683 -6.59413e-17
0.673887 0.302905 0.673887
0.857748 0.363503 0.363503
0.57735 0.57735 0.57735
0.673887 0.673887 0.302905
0.857748 0.363503 0.363503
0.92388 0.382683 -6.59413e-17
0.673887 0.673887 0.302905
0.707107 0.707107 -5.55112e-17
1 6.63324e-17 -6.63324e-17
0.92388 6.59413e-17 -0.382683
0.92388 0.382683 -6.59413e-17
0.857748 0.363503 -0.363503
0.92388 6.59413e-17 -0.382683
0.707107 5.55112e-17 -0.707107
0.857748 0.363503 -0.363503
0.673887 0.302905 -0.673887
0.92388 0.382683 -6.59413e-17
0.857748 0.363503 -0.363503
0.707107 0.707107 -5.55112e-17
0.673887 0.673887 -0.302905
0.857748 0.363503 -0.363503
0.673887 0.302905 -0.673887
0.673887 0.673887 -0.302905
0.57735 0.57735 -0.57735

CELLS 96 480
4	0	1	3	2
4	4	5	7	6
4	8	9	11	10
4	12	13	15	14
4	16	17	19	18
4	20	21	23	22
4	24	25	27	26
4	28	29	31	30
4	32	33	35	34
4	36	37	39	38
4	40	41	43	42
4	44	45	47	46
4	48	49	51	50
4	52	53	55	54
4	56	57	59	58
4	60	61	63	62
4	64	65	67	66
4	68	69	71	70
4	72	73	75	74
4	76	77	79	78
4	80	81	83	82
4	84	85	87	86
4	88	89	91	90
4	92	93	95	94
4	96	97	99	98
4	100	101	103	102
4	104	105	107	106
4	108	109	111	110
4	112	113	115	114
4	116	117	119	118
4	120	121	123	122
4	124	125	127	126
4	128	129	131	130
4	132	133	135	134
4	136	137	139	138
4	140	141	143	142
4	144	145	147	146
4	148	149	151	150
4	152	153	155	154
4	156	157	159	158
4	160	161	163	162
4	164	165	167	166
4	168	169	171	170
4	172	173	175	174
4	176	177	179	178
4	180	181	183	182
4	184	185	187	186
4	188	189	191	190
4	192	193	195	194
4	196	197	199	198
4	200	201	203	202
4	204	205	207	206
4	208	209	211	210
4	212	213	215	214
4	216	217	219	218
4	220	221	223	222
4	224	225	227	226
4	228	229	231	230
4	232	233	235	234
4	236	237	239	238
4	240	241	243	242
4	244	245	247	246
4	248	249	251	250
4	252	253	255	254
4	256	257	259	258
4	260	261	263	262
4	264	265	267	266
4	268	269	271	270
4	272	273	275	274
4	276	277	279	278
4	280	281	283	282
4	284	285	287	286
4	288	289	291	290
4	292	293	295	294
4	296	297	299	298
4	300	301	303	302
4	304	305	307	306
4	308	309	311	310
4	312	313	315	314
4	316	317	319	318
4	320	321	323	322
4	324	325	327	326
4	328	329	331	330
4	332	333	335	334
4	336	337	339	338
4	340	341	343	342
4	344	345	347	346
4	348	349	351	350
4	352	353	355	354
4	356	357	359	358
4	360	361	363	362
4	364	365	367	366
4	368	369	371	370
4	372	373	375	374
4	376	377	379	378
4	380	381	383	382

CELL_TYPES 96
 9 9 9 9 9 9 9 9 9 9 9 9 9 9 9 9 9 9 9 9 9 9 9 9 9 9 9 9 9 9 9 9 9 9 9 9 9 9 9 9 9 9 9 9 9 9 9 9 9 9 9 9 9 9 9 9 9 9 9 9 9 9 9 9 9 9 9 9 9 9 9 9 9 9 9 9 9 9 9 9 9 9 9 9 9 9 9 9 9 9 9 9 9 9 9 9
POINT_DATA 384
SCALARS phi double 1
LOOKUP_TABLE default
-0.272397 -0.497002 -0.140506 -0.405671 -0.497002 -0.667311 -0.405671 -0.613995 -0.140506 -0.405671 7.83202e-17 -0.257242 -0.405671 -0.613995 -0.257242 -0.470102 -0.667311 -0.778014 -0.613995 -0.745044 -0.778014 -0.81719 -0.745044 -0.778014 -0.613995 -0.745044 -0.470102 -0.613995 -0.745044 -0.778014 -0.613995 -0.667311 7.83202e-17 -0.257242 0.140506 -0.0662971 -0.257242 -0.470102 -0.0662971 -0.257242 0.140506 -0.0662971 0.272397 0.140506 -0.0662971 -0.257242 0.140506 -4.09362e-17 -0.470102 -0.613995 -0.257242 -0.405671 -0.613995 -0.667311 -0.405671 -0.497002 -0.257242 -0.405671 -4.09362e-17 -0.140506 -0.405671 -0.497002 -0.140506 -0.272397 0.272397 0.497002 0.140506 0.405671 0.497002 0.667311 0.405671 0.613995 0.140506 0.405671 3.25619e-16 0.257242 0.405671 0.613995 0.257242 0.470102 0.667311 0.778014 0.613995 0.745044 0.778014 0.81719 0.745044 0.778014 0.613995 0.745044 0.470102 0.613995 0.745044 0.778014 0.613995 0.667311 3.25619e-16 0.257242 -0.140506 0.0662971 0.257242 0.470102 0.0662971 0.257242 -0.140506 0.0662971 -0.272397 -0.140506 0.0662971 0.257242 -0.140506 7.85588e-17 0.470102 0.613995 0.257242 0.405671 0.613995 0.667311 0.405671 0.497002 0.257242 0.405671 7.85588e-17 0.140506 0.405671 0.497002 0.140506 0.272397 0.272397 0.140506 0.140506 -0.0662971 0.140506 3.25619e-16 -0.0662971 -0.257242 0.140506 -0.0662971 -8.47694e-17 -0.257242 -0.0662971 -0.257242 -0.257242 -0.470102 3.25619e-16 -0.140506 -0.257242 -0.405671 -0.140506 -0.272397 -0.405671 -0.497002 -0.257242 -0.405671 -0.470102 -0.613995 -0.405671 -0.497002 -0.613995 -0.667311 -8.47694e-17 -0.257242 -0.140506 -0.405671 -0.257242 -0.470102 -0.405671 -0.613995 -0.140506 -0.405671 -0.272397 -0.497002 -0.405671 -0.613995 -0.497002 -0.667311 -0.470102 -0.613995 -0.613995 -0.745044 -0.613995 -0.667311 -0.745044 -0.778014 -0.613995 -0.745044 -0.667311 -0.778014 -0.745044 -0.778014 -0.778014 -0.81719 0.81719 0.778014 0.778014 0.745044 0.778014 0.667311 0.745044 0.613995 0.778014 0.745044 0.667311 0.613995 0.745044 0.613995 0.613995 0.470102 0.667311 0.497002 0.613995 0.405671 0.497002 0.272397 0.405671 0.140506 0.613995 0.405671 0.470102 0.257242 0.405671 0.140506 0.257242 -4.09362e-17 0.667311 0.613995 0.497002 0.405671 0.613995 0.470102 0.405671 0.257242 0.497002 0.405671 0.272397 0.140506 0.405671 0.257242 0.140506 -1.9828e-16 0.470102 0.257242 0.257242 0.0662971 0.257242 -4.09362e-17 0.0662971 -0.140506 0.257242 0.0662971 -1.9828e-16 -0.140506 0.0662971 -0.140506 -0.140506 -0.272397 -0.272397 -0.140506 -0.497002 -0.405671 -0.140506 7.85588e-17 -0.405671 -0.257242 -0.497002 -0.405671 -0.667311 -0.613995 -0.405671 -0.257242 -0.613995 -0.470102 7.85588e-17 0.140506 -0.257242 -0.0662971 0.140506 0.272397 -0.0662971 0.140506 -0.257242 -0.0662971 -0.470102 -0.257242 -0.0662971 0.140506 -0.257242 -1.9828e-16 -0.667311 -0.613995 -0.778014 -0.745044 -0.613995 -0.470102 -0.745044 -0.613995 -0.778014 -0.745044 -0.81719 -0.778014 -0.745044 -0.613995 -0.778014 -0.667311 -0.470102 -0.257242 -0.613995 -0.405671 -0.257242 -1.9828e-16 -0.405671 -0.140506 -0.613995 -0.405671 -0.667311 -0.497002 -0.405671 -0.140506 -0.497002 -0.272397 0.272397 0.140506 0.497002 0.405671 0.140506 -8.47694e-17 0.405671 0.257242 0.497002 0.405671 0.667311 0.613995 0.405671 0.257242 0.613995 0.470102 -8.47694e-17 -0.140506 0.257242 0.0662971 -0.140506 -0.272397 0.0662971 -0.140506 0.257242 0.0662971 0.470102 0.257242 0.0662971 -0.140506 0.257242 7.83202e-17 0.667311 0.613995 0.778014 0.745044 0.613995 0.470102 0.745044 0.613995 0.778014 0.745044 0.81719 0.778014 0.745044 0.613995 0.778014 0.667311 0.470102 0.257242 0.613995 0.405671 0.257242 7.83202e-17 0.405671 0.140506 0.613995 0.405671 0.667311 0.497002 0.405671 0.140506 0.497002 0.272397 
SCALARS alpha double 1
LOOKUP_TABLE default
0.623889 0.608887 0.608887 0.616223 0.608887 0.609832 0.616223 0.619583 0.608887 0.616223 0.609832 0.619583 0.616223 0.619583 0.619583 0.622658 0.609832 0.608887 0.619583 0.616223 0.608887 0.623889 0.616223 0.608887 0.619583 0.616223 0.622658 0.619583 0.616223 0.608887 0.619583 0.609832 0.609832 0.619583 0.608887 0.616223 0.619583 0.622658 0.616223 0.619583 0.608887 0.616223 0.623889 0.608887 0.616223 0.619583 0.608887 0.609832 0.622658 0.619583 0.619583 0.616223 0.619583 0.609832 0.616223 0.608887 0.619583 0.616223 0.609832 0.608887 0.616223 0.608887 0.608887 0.623889 0.623889 0.608887 0.608887 0.616223 0.608887 0.609832 0.616223 0.619583 0.608887 0.616223 0.609832 0.619583 0.616223 0.619583 0.619583 0.622658 0.609832 0.608887 0.619583 0.616223 0.608887 0.623889 0.616223 0.608887 0.619583 0.616223 0.622658 0.619583 0.616223 0.608887 0.619583 0.609832 0.609832 0.619583 0.608887 0.616223 0.619583 0.622658 0.616223 0.619583 0.608887 0.616223 0.623889 0.608887 0.616223 0.619583 0.608887 0.609832 0.622658 0.619583 0.619583 0.616223 0.619583 0.609832 0.616223 0.608887 0.619583 0.616223 0.609832 0.608887 0.616223 0.608887 0.608887 0.623889 0.623889 0.608887 0.608887 0.616223 0.608887 0.609832 0.616223 0.619583 0.608887 0.616223 0.609832 0.619583 0.616223 0.619583 0.619583 0.622658 0.609832 0.608887 0.619583 0.616223 0.608887 0.623889 0.616223 0.608887 0.619583 0.616223 0.622658 0.619583 0.616223 0.608887 0.619583 0.609832 0.609832 0.619583 0.608887 0.616223 0.619583 0.622658 0.616223 0.619583 0.608887 0.616223 0.623889 0.608887 0.616223 0.619583 0.608887 0.609832 0.622658 0.619583 0.619583 0.616223 0.619583 0.609832 0.616223 0.608887 0.619583 0.616223 0.609832 0.608887 0.616223 0.608887 0.608887 0.623889 0.623889 0.608887 0.608887 0.616223 0.608887 0.609832 0.616223 0.619583 0.608887 0.616223 0.609832 0.619583 0.616223 0.619583 0.619583 0.622658 0.609832 0.608887 0.619583 0.616223 0.608887 0.623889 0.616223 0.608887 0.619583 0.616223 0.622658 0.619583 0.616223 0.608887 0.619583 0.609832 0.609832 0.619583 0.608887 0.616223 0.619583 0.622658 0.616223 0.619583 0.608887 0.616223 0.623889 0.608887 0.616223 0.619583 0.608887 0.609832 0.622658 0.619583 0.619583 0.616223 0.619583 0.609832 0.616223 0.608887 0.619583 0.616223 0.609832 0.608887 0.616223 0.608887 0.608887 0.623889 0.623889 0.608887 0.608887 0.616223 0.608887 0.609832 0.616223 0.619583 0.608887 0.616223 0.609832 0.619583 0.616223 0.619583 0.619583 0.622658 0.609832 0.608887 0.619583 0.616223 0.608887 0.623889 0.616223 0.608887 0.619583 0.616223 0.622658 0.619583 0.616223 0.608887 0.619583 0.609832 0.609832 0.619583 0.608887 0.616223 0.619583 0.622658 0.616223 0.619583 0.608887 0.616223 0.623889 0.608887 0.616223 0.619583 0.608887 0.609832 0.622658 0.619583 0.619583 0.616223 0.619583 0.609832 0.616223 0.608887 0.619583 0.616223 0.609832 0.608887 0.616223 0.608887 0.608887 0.623889 0.623889 0.608887 0.608887 0.616223 0.608887 0.609832 0.616223 0.619583 0.608887 0.616223 0.609832 0.619583 0.616223 0.619583 0.619583 0.622658 0.609832 0.608887 0.619583 0.616223 0.608887 0.623889 0.616223 0.608887 0.619583 0.616223 0.622658 0.619583 0.616223 0.608887 0.619583 0.609832 0.609832 0.619583 0.608887 0.616223 0.619583 0.622658 0.616223 0.619583 0.608887 0.616223 0.623889 0.608887 0.616223 0.619583 0.608887 0.609832 0.622658 0.619583 0.619583 0.616223 0.619583 0.609832 0.616223 0.608887 0.619583 0.616223 0.609832 0.608887 0.616223 0.608887 0.608887 0.623889 
