# vtk DataFile Version 3.0
#This file was generated by the deal.II library on 2020/7/10 at 23:10:18
ASCII
DATASET UNSTRUCTURED_GRID

POINTS 96 double
0.57735 -0.57735 -0.57735
-5.55112e-17 -0.707107 -0.707107
0.707107 5.55112e-17 -0.707107
-6.63324e-17 6.63324e-17 -1
-5.55112e-17 -0.707107 -0.707107
-0.57735 -0.57735 -0.57735
-6.63324e-17 6.63324e-17 -1
-0.707107 5.55112e-17 -0.707107
0.707107 5.55112e-17 -0.707107
-6.63324e-17 6.63324e-17 -1
0.57735 0.57735 -0.57735
-5.55112e-17 0.707107 -0.707107
-6.63324e-17 6.63324e-17 -1
-0.707107 5.55112e-17 -0.707107
-5.55112e-17 0.707107 -0.707107
-0.57735 0.57735 -0.57735
0.57735 -0.57735 0.57735
0.707107 5.55112e-17 0.707107
-5.55112e-17 -0.707107 0.707107
-6.63324e-17 6.63324e-17 1
0.707107 5.55112e-17 0.707107
0.57735 0.57735 0.57735
-6.63324e-17 6.63324e-17 1
-5.55112e-17 0.707107 0.707107
-5.55112e-17 -0.707107 0.707107
-6.63324e-17 6.63324e-17 1
-0.57735 -0.57735 0.57735
-0.707107 5.55112e-17 0.707107
-6.63324e-17 6.63324e-17 1
-5.55112e-17 0.707107 0.707107
-0.707107 5.55112e-17 0.707107
-0.57735 0.57735 0.57735
0.57735 -0.57735 0.57735
-5.55112e-17 -0.707107 0.707107
0.707107 -0.707107 -5.55112e-17
-6.63324e-17 -1 -6.63324e-17
-5.55112e-17 -0.707107 0.707107
-0.57735 -0.57735 0.57735
-6.63324e-17 -1 -6.63324e-17
-0.707107 -0.707107 -5.55112e-17
0.707107 -0.707107 -5.55112e-17
-6.63324e-17 -1 -6.63324e-17
0.57735 -0.57735 -0.57735
-5.55112e-17 -0.707107 -0.707107
-6.63324e-17 -1 -6.63324e-17
-0.707107 -0.707107 -5.55112e-17
-5.55112e-17 -0.707107 -0.707107
-0.57735 -0.57735 -0.57735
0.57735 0.57735 0.57735
0.707107 0.707107 -5.55112e-17
-5.55112e-17 0.707107 0.707107
-6.63324e-17 1 -6.63324e-17
0.707107 0.707107 -5.55112e-17
0.57735 0.57735 -0.57735
-6.63324e-17 1 -6.63324e-17
-5.55112e-17 0.707107 -0.707107
-5.55112e-17 0.707107 0.707107
-6.63324e-17 1 -6.63324e-17
-0.57735 0.57735 0.57735
-0.707107 0.707107 -5.55112e-17
-6.63324e-17 1 -6.63324e-17
-5.55112e-17 0.707107 -0.707107
-0.707107 0.707107 -5.55112e-17
-0.57735 0.57735 -0.57735
-0.57735 -0.57735 0.57735
-0.707107 5.55112e-17 0.707107
-0.707107 -0.707107 -5.55112e-17
-1 6.63324e-17 -6.63324e-17
-0.707107 5.55112e-17 0.707107
-0.57735 0.57735 0.57735
-1 6.63324e-17 -6.63324e-17
-0.707107 0.707107 -5.55112e-17
-0.707107 -0.707107 -5.55112e-17
-1 6.63324e-17 -6.63324e-17
-0.57735 -0.57735 -0.57735
-0.707107 5.55112e-17 -0.707107
-1 6.63324e-17 -6.63324e-17
-0.707107 0.707107 -5.55112e-17
-0.707107 5.55112e-17 -0.707107
-0.57735 0.57735 -0.57735
0.57735 -0.57735 0.57735
0.707107 -0.707107 -5.55112e-17
0.707107 5.55112e-17 0.707107
1 6.63324e-17 -6.63324e-17
0.707107 -0.707107 -5.55112e-17
0.57735 -0.57735 -0.57735
1 6.63324e-17 -6.63324e-17
0.707107 5.55112e-17 -0.707107
0.707107 5.55112e-17 0.707107
1 6.63324e-17 -6.63324e-17
0.57735 0.57735 0.57735
0.707107 0.707107 -5.55112e-17
1 6.63324e-17 -6.63324e-17
0.707107 5.55112e-17 -0.707107
0.707107 0.707107 -5.55112e-17
0.57735 0.57735 -0.57735

CELLS 24 120
4	0	1	3	2
4	4	5	7	6
4	8	9	11	10
4	12	13	15	14
4	16	17	19	18
4	20	21	23	22
4	24	25	27	26
4	28	29	31	30
4	32	33	35	34
4	36	37	39	38
4	40	41	43	42
4	44	45	47	46
4	48	49	51	50
4	52	53	55	54
4	56	57	59	58
4	60	61	63	62
4	64	65	67	66
4	68	69	71	70
4	72	73	75	74
4	76	77	79	78
4	80	81	83	82
4	84	85	87	86
4	88	89	91	90
4	92	93	95	94

CELL_TYPES 24
 9 9 9 9 9 9 9 9 9 9 9 9 9 9 9 9 9 9 9 9 9 9 9 9
POINT_DATA 96
SCALARS phi double 1
LOOKUP_TABLE default
-0.2232 -0.550519 -1.25186e-16 -0.384044 -0.550519 -0.669599 -0.384044 -0.550519 -1.25186e-16 -0.384044 0.2232 -9.01426e-18 -0.384044 -0.550519 -9.01426e-18 -0.2232 0.2232 0.550519 1.22582e-16 0.384044 0.550519 0.669599 0.384044 0.550519 1.22582e-16 0.384044 -0.2232 -8.61186e-17 0.384044 0.550519 -8.61186e-17 0.2232 0.2232 1.22582e-16 -5.42701e-17 -0.384044 1.22582e-16 -0.2232 -0.384044 -0.550519 -5.42701e-17 -0.384044 -0.2232 -0.550519 -0.384044 -0.550519 -0.550519 -0.669599 0.669599 0.550519 0.550519 0.384044 0.550519 0.2232 0.384044 -9.01426e-18 0.550519 0.384044 0.2232 -3.05511e-17 0.384044 -9.01426e-18 -3.05511e-17 -0.2232 -0.2232 -8.61186e-17 -0.550519 -0.384044 -8.61186e-17 0.2232 -0.384044 -3.05511e-17 -0.550519 -0.384044 -0.669599 -0.550519 -0.384044 -3.05511e-17 -0.550519 -0.2232 0.2232 -5.42701e-17 0.550519 0.384044 -5.42701e-17 -0.2232 0.384044 -1.25186e-16 0.550519 0.384044 0.669599 0.550519 0.384044 -1.25186e-16 0.550519 0.2232 
SCALARS alpha double 1
LOOKUP_TABLE default
0.730694 0.71059 0.71059 0.732677 0.71059 0.730694 0.732677 0.71059 0.71059 0.732677 0.730694 0.71059 0.732677 0.71059 0.71059 0.730694 0.730694 0.71059 0.71059 0.732677 0.71059 0.730694 0.732677 0.71059 0.71059 0.732677 0.730694 0.71059 0.732677 0.71059 0.71059 0.730694 0.730694 0.71059 0.71059 0.732677 0.71059 0.730694 0.732677 0.71059 0.71059 0.732677 0.730694 0.71059 0.732677 0.71059 0.71059 0.730694 0.730694 0.71059 0.71059 0.732677 0.71059 0.730694 0.732677 0.71059 0.71059 0.732677 0.730694 0.71059 0.732677 0.71059 0.71059 0.730694 0.730694 0.71059 0.71059 0.732677 0.71059 0.730694 0.732677 0.71059 0.71059 0.732677 0.730694 0.71059 0.732677 0.71059 0.71059 0.730694 0.730694 0.71059 0.71059 0.732677 0.71059 0.730694 0.732677 0.71059 0.71059 0.732677 0.730694 0.71059 0.732677 0.71059 0.71059 0.730694 
