# vtk DataFile Version 3.0
#This file was generated by the deal.II library on 2020/7/10 at 23:10:24
ASCII
DATASET UNSTRUCTURED_GRID

POINTS 1536 double
0.57735 -0.57735 -0.57735
0.44539 -0.633099 -0.633099
0.633099 -0.44539 -0.633099
0.493293 -0.493293 -0.716466
0.44539 -0.633099 -0.633099
0.302905 -0.673887 -0.673887
0.493293 -0.493293 -0.716466
0.338921 -0.527595 -0.778958
0.633099 -0.44539 -0.633099
0.493293 -0.493293 -0.716466
0.673887 -0.302905 -0.673887
0.527595 -0.338921 -0.778958
0.493293 -0.493293 -0.716466
0.338921 -0.527595 -0.778958
0.527595 -0.338921 -0.778958
0.363503 -0.363503 -0.857748
0.302905 -0.673887 -0.673887
0.153263 -0.698753 -0.698753
0.338921 -0.527595 -0.778958
0.172112 -0.549472 -0.817593
0.153263 -0.698753 -0.698753
-5.55112e-17 -0.707107 -0.707107
0.172112 -0.549472 -0.817593
-6.19159e-17 -0.55557 -0.83147
0.338921 -0.527595 -0.778958
0.172112 -0.549472 -0.817593
0.363503 -0.363503 -0.857748
0.184943 -0.379645 -0.906458
0.172112 -0.549472 -0.817593
-6.19159e-17 -0.55557 -0.83147
0.184943 -0.379645 -0.906458
-6.59413e-17 -0.382683 -0.92388
0.673887 -0.302905 -0.673887
0.527595 -0.338921 -0.778958
0.698753 -0.153263 -0.698753
0.549472 -0.172112 -0.817593
0.527595 -0.338921 -0.778958
0.363503 -0.363503 -0.857748
0.549472 -0.172112 -0.817593
0.379645 -0.184943 -0.906458
0.698753 -0.153263 -0.698753
0.549472 -0.172112 -0.817593
0.707107 5.55112e-17 -0.707107
0.55557 6.19159e-17 -0.83147
0.549472 -0.172112 -0.817593
0.379645 -0.184943 -0.906458
0.55557 6.19159e-17 -0.83147
0.382683 6.59413e-17 -0.92388
0.363503 -0.363503 -0.857748
0.184943 -0.379645 -0.906458
0.379645 -0.184943 -0.906458
0.193545 -0.193545 -0.961811
0.184943 -0.379645 -0.906458
-6.59413e-17 -0.382683 -0.92388
0.193545 -0.193545 -0.961811
-6.74325e-17 -0.19509 -0.980785
0.379645 -0.184943 -0.906458
0.193545 -0.193545 -0.961811
0.382683 6.59413e-17 -0.92388
0.19509 6.74325e-17 -0.980785
0.193545 -0.193545 -0.961811
-6.74325e-17 -0.19509 -0.980785
0.19509 6.74325e-17 -0.980785
-6.63324e-17 6.63324e-17 -1
-5.55112e-17 -0.707107 -0.707107
-0.153263 -0.698753 -0.698753
-6.19159e-17 -0.55557 -0.83147
-0.172112 -0.549472 -0.817593
-0.153263 -0.698753 -0.698753
-0.302905 -0.673887 -0.673887
-0.172112 -0.549472 -0.817593
-0.338921 -0.527595 -0.778958
-6.19159e-17 -0.55557 -0.83147
-0.172112 -0.549472 -0.817593
-6.59413e-17 -0.382683 -0.92388
-0.184943 -0.379645 -0.906458
-0.172112 -0.549472 -0.817593
-0.338921 -0.527595 -0.778958
-0.184943 -0.379645 -0.906458
-0.363503 -0.363503 -0.857748
-0.302905 -0.673887 -0.673887
-0.44539 -0.633099 -0.633099
-0.338921 -0.527595 -0.778958
-0.493293 -0.493293 -0.716466
-0.44539 -0.633099 -0.633099
-0.57735 -0.57735 -0.57735
-0.493293 -0.493293 -0.716466
-0.633099 -0.44539 -0.633099
-0.338921 -0.527595 -0.778958
-0.493293 -0.493293 -0.716466
-0.363503 -0.363503 -0.857748
-0.527595 -0.338921 -0.778958
-0.493293 -0.493293 -0.716466
-0.633099 -0.44539 -0.633099
-0.527595 -0.338921 -0.778958
-0.673887 -0.302905 -0.673887
-6.59413e-17 -0.382683 -0.92388
-0.184943 -0.379645 -0.906458
-6.74325e-17 -0.19509 -0.980785
-0.193545 -0.193545 -0.961811
-0.184943 -0.379645 -0.906458
-0.363503 -0.363503 -0.857748
-0.193545 -0.193545 -0.961811
-0.379645 -0.184943 -0.906458
-6.74325e-17 -0.19509 -0.980785
-0.193545 -0.193545 -0.961811
-6.63324e-17 6.63324e-17 -1
-0.19509 6.74325e-17 -0.980785
-0.193545 -0.193545 -0.961811
-0.379645 -0.184943 -0.906458
-0.19509 6.74325e-17 -0.980785
-0.382683 6.59413e-17 -0.92388
-0.363503 -0.363503 -0.857748
-0.527595 -0.338921 -0.778958
-0.379645 -0.184943 -0.906458
-0.549472 -0.172112 -0.817593
-0.527595 -0.338921 -0.778958
-0.673887 -0.302905 -0.673887
-0.549472 -0.172112 -0.817593
-0.698753 -0.153263 -0.698753
-0.379645 -0.184943 -0.906458
-0.549472 -0.172112 -0.817593
-0.382683 6.59413e-17 -0.92388
-0.55557 6.19159e-17 -0.83147
-0.549472 -0.172112 -0.817593
-0.698753 -0.153263 -0.698753
-0.55557 6.19159e-17 -0.83147
-0.707107 5.55112e-17 -0.707107
0.707107 5.55112e-17 -0.707107
0.55557 6.19159e-17 -0.83147
0.698753 0.153263 -0.698753
0.549472 0.172112 -0.817593
0.55557 6.19159e-17 -0.83147
0.382683 6.59413e-17 -0.92388
0.549472 0.172112 -0.817593
0.379645 0.184943 -0.906458
0.698753 0.153263 -0.698753
0.549472 0.172112 -0.817593
0.673887 0.302905 -0.673887
0.527595 0.338921 -0.778958
0.549472 0.172112 -0.817593
0.379645 0.184943 -0.906458
0.527595 0.338921 -0.778958
0.363503 0.363503 -0.857748
0.382683 6.59413e-17 -0.92388
0.19509 6.74325e-17 -0.980785
0.379645 0.184943 -0.906458
0.193545 0.193545 -0.961811
0.19509 6.74325e-17 -0.980785
-6.63324e-17 6.63324e-17 -1
0.193545 0.193545 -0.961811
-6.74325e-17 0.19509 -0.980785
0.379645 0.184943 -0.906458
0.193545 0.193545 -0.961811
0.363503 0.363503 -0.857748
0.184943 0.379645 -0.906458
0.193545 0.193545 -0.961811
-6.74325e-17 0.19509 -0.980785
0.184943 0.379645 -0.906458
-6.59413e-17 0.382683 -0.92388
0.673887 0.302905 -0.673887
0.527595 0.338921 -0.778958
0.633099 0.44539 -0.633099
0.493293 0.493293 -0.716466
0.527595 0.338921 -0.778958
0.363503 0.363503 -0.857748
0.493293 0.493293 -0.716466
0.338921 0.527595 -0.778958
0.633099 0.44539 -0.633099
0.493293 0.493293 -0.716466
0.57735 0.57735 -0.57735
0.44539 0.633099 -0.633099
0.493293 0.493293 -0.716466
0.338921 0.527595 -0.778958
0.44539 0.633099 -0.633099
0.302905 0.673887 -0.673887
0.363503 0.363503 -0.857748
0.184943 0.379645 -0.906458
0.338921 0.527595 -0.778958
0.172112 0.549472 -0.817593
0.184943 0.379645 -0.906458
-6.59413e-17 0.382683 -0.92388
0.172112 0.549472 -0.817593
-6.19159e-17 0.55557 -0.83147
0.338921 0.527595 -0.778958
0.172112 0.549472 -0.817593
0.302905 0.673887 -0.673887
0.153263 0.698753 -0.698753
0.172112 0.549472 -0.817593
-6.19159e-17 0.55557 -0.83147
0.153263 0.698753 -0.698753
-5.55112e-17 0.707107 -0.707107
-6.63324e-17 6.63324e-17 -1
-0.19509 6.74325e-17 -0.980785
-6.74325e-17 0.19509 -0.980785
-0.193545 0.193545 -0.961811
-0.19509 6.74325e-17 -0.980785
-0.382683 6.59413e-17 -0.92388
-0.193545 0.193545 -0.961811
-0.379645 0.184943 -0.906458
-6.74325e-17 0.19509 -0.980785
-0.193545 0.193545 -0.961811
-6.59413e-17 0.382683 -0.92388
-0.184943 0.379645 -0.906458
-0.193545 0.193545 -0.961811
-0.379645 0.184943 -0.906458
-0.184943 0.379645 -0.906458
-0.363503 0.363503 -0.857748
-0.382683 6.59413e-17 -0.92388
-0.55557 6.19159e-17 -0.83147
-0.379645 0.184943 -0.906458
-0.549472 0.172112 -0.817593
-0.55557 6.19159e-17 -0.83147
-0.707107 5.55112e-17 -0.707107
-0.549472 0.172112 -0.817593
-0.698753 0.153263 -0.698753
-0.379645 0.184943 -0.906458
-0.549472 0.172112 -0.817593
-0.363503 0.363503 -0.857748
-0.527595 0.338921 -0.778958
-0.549472 0.172112 -0.817593
-0.698753 0.153263 -0.698753
-0.527595 0.338921 -0.778958
-0.673887 0.302905 -0.673887
-6.59413e-17 0.382683 -0.92388
-0.184943 0.379645 -0.906458
-6.19159e-17 0.55557 -0.83147
-0.172112 0.549472 -0.817593
-0.184943 0.379645 -0.906458
-0.363503 0.363503 -0.857748
-0.172112 0.549472 -0.817593
-0.338921 0.527595 -0.778958
-6.19159e-17 0.55557 -0.83147
-0.172112 0.549472 -0.817593
-5.55112e-17 0.707107 -0.707107
-0.153263 0.698753 -0.698753
-0.172112 0.549472 -0.817593
-0.338921 0.527595 -0.778958
-0.153263 0.698753 -0.698753
-0.302905 0.673887 -0.673887
-0.363503 0.363503 -0.857748
-0.527595 0.338921 -0.778958
-0.338921 0.527595 -0.778958
-0.493293 0.493293 -0.716466
-0.527595 0.338921 -0.778958
-0.673887 0.302905 -0.673887
-0.493293 0.493293 -0.716466
-0.633099 0.44539 -0.633099
-0.338921 0.527595 -0.778958
-0.493293 0.493293 -0.716466
-0.302905 0.673887 -0.673887
-0.44539 0.633099 -0.633099
-0.493293 0.493293 -0.716466
-0.633099 0.44539 -0.633099
-0.44539 0.633099 -0.633099
-0.57735 0.57735 -0.57735
0.57735 -0.57735 0.57735
0.633099 -0.44539 0.633099
0.44539 -0.633099 0.633099
0.493293 -0.493293 0.716466
0.633099 -0.44539 0.633099
0.673887 -0.302905 0.673887
0.493293 -0.493293 0.716466
0.527595 -0.338921 0.778958
0.44539 -0.633099 0.633099
0.493293 -0.493293 0.716466
0.302905 -0.673887 0.673887
0.338921 -0.527595 0.778958
0.493293 -0.493293 0.716466
0.527595 -0.338921 0.778958
0.338921 -0.527595 0.778958
0.363503 -0.363503 0.857748
0.673887 -0.302905 0.673887
0.698753 -0.153263 0.698753
0.527595 -0.338921 0.778958
0.549472 -0.172112 0.817593
0.698753 -0.153263 0.698753
0.707107 5.55112e-17 0.707107
0.549472 -0.172112 0.817593
0.55557 6.19159e-17 0.83147
0.527595 -0.338921 0.778958
0.549472 -0.172112 0.817593
0.363503 -0.363503 0.857748
0.379645 -0.184943 0.906458
0.549472 -0.172112 0.817593
0.55557 6.19159e-17 0.83147
0.379645 -0.184943 0.906458
0.382683 6.59413e-17 0.92388
0.302905 -0.673887 0.673887
0.338921 -0.527595 0.778958
0.153263 -0.698753 0.698753
0.172112 -0.549472 0.817593
0.338921 -0.527595 0.778958
0.363503 -0.363503 0.857748
0.172112 -0.549472 0.817593
0.184943 -0.379645 0.906458
0.153263 -0.698753 0.698753
0.172112 -0.549472 0.817593
-5.55112e-17 -0.707107 0.707107
-6.19159e-17 -0.55557 0.83147
0.172112 -0.549472 0.817593
0.184943 -0.379645 0.906458
-6.19159e-17 -0.55557 0.83147
-6.59413e-17 -0.382683 0.92388
0.363503 -0.363503 0.857748
0.379645 -0.184943 0.906458
0.184943 -0.379645 0.906458
0.193545 -0.193545 0.961811
0.379645 -0.184943 0.906458
0.382683 6.59413e-17 0.92388
0.193545 -0.193545 0.961811
0.19509 6.74325e-17 0.980785
0.184943 -0.379645 0.906458
0.193545 -0.193545 0.961811
-6.59413e-17 -0.382683 0.92388
-6.74325e-17 -0.19509 0.980785
0.193545 -0.193545 0.961811
0.19509 6.74325e-17 0.980785
-6.74325e-17 -0.19509 0.980785
-6.63324e-17 6.63324e-17 1
0.707107 5.55112e-17 0.707107
0.698753 0.153263 0.698753
0.55557 6.19159e-17 0.83147
0.549472 0.172112 0.817593
0.698753 0.153263 0.698753
0.673887 0.302905 0.673887
0.549472 0.172112 0.817593
0.527595 0.338921 0.778958
0.55557 6.19159e-17 0.83147
0.549472 0.172112 0.817593
0.382683 6.59413e-17 0.92388
0.379645 0.184943 0.906458
0.549472 0.172112 0.817593
0.527595 0.338921 0.778958
0.379645 0.184943 0.906458
0.363503 0.363503 0.857748
0.673887 0.302905 0.673887
0.633099 0.44539 0.633099
0.527595 0.338921 0.778958
[...]
POINT_DATA 1536
SCALARS phi double 1
LOOKUP_TABLE default
-0.284849 -0.406627 -0.218824 -0.354036 -0.406627 -0.516699 -0.354036 -0.477936 -0.218824 -0.354036 -0.148605 -0.291586 -0.354036 -0.477936 -0.291586 -0.423476 -0.516699 -0.61435 -0.477936 -0.589561 -0.61435 -0.697582 -0.589561 -0.683847 -0.477936 -0.589561 -0.423476 -0.542976 -0.589561 -0.683847 -0.542976 -0.643789 -0.148605 -0.291586 -0.0751318 -0.217645 -0.291586 -0.423476 -0.217645 -0.351468 -0.0751318 -0.217645 8.18303e-16 -0.136906 -0.217645 -0.351468 -0.136906 -0.267643 -0.423476 -0.542976 -0.351468 -0.474228 -0.542976 -0.643789 -0.474228 -0.579297 -0.351468 -0.474228 -0.267643 -0.387677 -0.474228 -0.579297 -0.387677 -0.492856 -0.697582 -0.764614 -0.683847 -0.758702 -0.764614 -0.813909 -0.758702 -0.81124 -0.683847 -0.758702 -0.643789 -0.724689 -0.758702 -0.81124 -0.724689 -0.78085 -0.813909 -0.844275 -0.81124 -0.840032 -0.844275 -0.854548 -0.840032 -0.844275 -0.81124 -0.840032 -0.78085 -0.81124 -0.840032 -0.844275 -0.81124 -0.813909 -0.643789 -0.724689 -0.579297 -0.664391 -0.724689 -0.78085 -0.664391 -0.724689 -0.579297 -0.664391 -0.492856 -0.579297 -0.664391 -0.724689 -0.579297 -0.643789 -0.78085 -0.81124 -0.724689 -0.758702 -0.81124 -0.813909 -0.758702 -0.764614 -0.724689 -0.758702 -0.643789 -0.683847 -0.758702 -0.764614 -0.683847 -0.697582 8.18303e-16 -0.136906 0.0751318 -0.048503 -0.136906 -0.267643 -0.048503 -0.169755 0.0751318 -0.048503 0.148605 0.0417173 -0.048503 -0.169755 0.0417173 -0.0661031 -0.267643 -0.387677 -0.169755 -0.284064 -0.387677 -0.492856 -0.284064 -0.387677 -0.169755 -0.284064 -0.0661031 -0.169755 -0.284064 -0.387677 -0.169755 -0.267643 0.148605 0.0417173 0.218824 0.131959 0.0417173 -0.0661031 0.131959 0.0417173 0.218824 0.131959 0.284849 0.218824 0.131959 0.0417173 0.218824 0.148605 -0.0661031 -0.169755 0.0417173 -0.048503 -0.169755 -0.267643 -0.048503 -0.136906 0.0417173 -0.048503 0.148605 0.0751318 -0.048503 -0.136906 0.0751318 -7.9704e-16 -0.492856 -0.579297 -0.387677 -0.474228 -0.579297 -0.643789 -0.474228 -0.542976 -0.387677 -0.474228 -0.267643 -0.351468 -0.474228 -0.542976 -0.351468 -0.423476 -0.643789 -0.683847 -0.542976 -0.589561 -0.683847 -0.697582 -0.589561 -0.61435 -0.542976 -0.589561 -0.423476 -0.477936 -0.589561 -0.61435 -0.477936 -0.516699 -0.267643 -0.351468 -0.136906 -0.217645 -0.351468 -0.423476 -0.217645 -0.291586 -0.136906 -0.217645 -7.9704e-16 -0.0751318 -0.217645 -0.291586 -0.0751318 -0.148605 -0.423476 -0.477936 -0.291586 -0.354036 -0.477936 -0.516699 -0.354036 -0.406627 -0.291586 -0.354036 -0.148605 -0.218824 -0.354036 -0.406627 -0.218824 -0.284849 0.284849 0.406627 0.218824 0.354036 0.406627 0.516699 0.354036 0.477936 0.218824 0.354036 0.148605 0.291586 0.354036 0.477936 0.291586 0.423476 0.516699 0.61435 0.477936 0.589561 0.61435 0.697582 0.589561 0.683847 0.477936 0.589561 0.423476 0.542976 0.589561 0.683847 0.542976 0.643789 0.148605 0.291586 0.0751318 0.217645 0.291586 0.423476 0.217645 0.351468 0.0751318 0.217645 -5.20964e-16 0.136906 0.217645 0.351468 0.136906 0.267643 0.423476 0.542976 0.351468 0.474228 0.542976 0.643789 0.474228 0.579297 0.351468 0.474228 0.267643 0.387677 0.474228 0.579297 0.387677 0.492856 0.697582 0.764614 0.683847 0.758702 0.764614 0.813909 0.758702 0.81124 0.683847 0.758702 0.643789 0.724689 0.758702 0.81124 0.724689 0.78085 0.813909 0.844275 0.81124 0.840032 0.844275 0.854548 0.840032 0.844275 0.81124 0.840032 0.78085 0.81124 0.840032 0.844275 0.81124 0.813909 0.643789 0.724689 0.579297 0.664391 0.724689 0.78085 0.664391 0.724689 0.579297 0.664391 0.492856 0.579297 0.664391 0.724689 0.579297 0.643789 0.78085 0.81124 0.724689 0.758702 0.81124 0.813909 0.758702 0.764614 0.724689 0.758702 0.643789 0.683847 0.758702 0.764614 0.683847 0.697582 -5.20964e-16 0.136906 -0.0751318 0.048503 0.136906 0.267643 0.048503 0.169755 -0.0751318 0.048503 -0.148605 -0.0417173 0.048503 0.169755 -0.0417173 0.0661031 0.267643 0.387677 0.169755 0.284064 0.387677 0.492856 0.284064 0.387677 0.169755 0.284064 0.0661031 0.169755 0.284064 0.387677 0.169755 0.267643 -0.148605 -0.0417173 -0.218824 -0.131959 -0.0417173 0.0661031 -0.131959 -0.0417173 -0.218824 -0.131959 -0.284849 -0.218824 -0.131959 -0.0417173 -0.218824 -0.148605 0.0661031 0.169755 -0.0417173 0.048503 0.169755 0.267643 0.048503 0.136906 -0.0417173 0.048503 -0.148605 -0.0751318 0.048503 0.136906 -0.0751318 2.00582e-16 0.492856 0.579297 0.387677 0.474228 0.579297 0.643789 0.474228 0.542976 0.387677 0.474228 0.267643 0.351468 0.474228 0.542976 0.351468 0.423476 0.643789 0.683847 0.542976 0.589561 0.683847 0.697582 0.589561 0.61435 0.542976 0.589561 0.423476 0.477936 0.589561 0.61435 0.477936 0.516699 0.267643 0.351468 0.136906 0.217645 0.351468 0.423476 0.217645 0.291586 0.136906 0.217645 2.00582e-16 0.0751318 0.217645 0.291586 0.0751318 0.148605 0.423476 0.477936 0.291586 0.354036 0.477936 0.516699 0.354036 0.406627 0.291586 0.354036 0.148605 0.218824 0.354036 0.406627 0.218824 0.284849 0.284849 0.218824 0.218824 0.131959 0.218824 0.148605 0.131959 0.0417173 0.218824 0.131959 0.148605 0.0417173 0.131959 0.0417173 0.0417173 -0.0661031 0.148605 0.0751318 0.0417173 -0.048503 0.0751318 -5.20964e-16 -0.048503 -0.136906 0.0417173 -0.048503 -0.0661031 -0.169755 -0.048503 -0.136906 -0.169755 -0.267643 0.148605 0.0417173 0.0751318 -0.048503 0.0417173 -0.0661031 -0.048503 -0.169755 0.0751318 -0.048503 6.44377e-16 -0.136906 -0.048503 -0.169755 -0.136906 -0.267643 -0.0661031 -0.169755 -0.169755 -0.284064 -0.169755 -0.267643 -0.284064 -0.387677 -0.169755 -0.284064 -0.267643 -0.387677 -0.284064 -0.387677 -0.387677 -0.492856 -5.20964e-16 -0.0751318 -0.136906 -0.217645 -0.0751318 -0.148605 -0.217645 -0.291586 -0.136906 -0.217645 -0.267643 -0.351468 -0.217645 -0.291586 -0.351468 -0.423476 -0.148605 -0.218824 -0.291586 -0.354036 -0.218824 -0.284849 -0.354036 -0.406627 -0.291586 -0.354036 -0.423476 -0.477936 -0.354036 -0.406627 -0.477936 -0.516699 -0.267643 -0.351468 -0.387677 -0.474228 -0.351468 -0.423476 -0.474228 -0.542976 -0.387677 -0.474228 -0.492856 -0.579297 -0.474228 -0.542976 -0.579297 -0.643789 -0.423476 -0.477936 -0.542976 -0.589561 -0.477936 -0.516699 -0.589561 -0.61435 -0.542976 -0.589561 -0.643789 -0.683847 -0.589561 -0.61435 -0.683847 -0.697582 6.44377e-16 -0.136906 -0.0751318 -0.217645 -0.136906 -0.267643 -0.217645 -0.351468 -0.0751318 -0.217645 -0.148605 -0.291586 -0.217645 -0.351468 -0.291586 -0.423476 -0.267643 -0.387677 -0.351468 -0.474228 -0.387677 -0.492856 -0.474228 -0.579297 -0.351468 -0.474228 -0.423476 -0.542976 -0.474228 -0.579297 -0.542976 -0.643789 -0.148605 -0.291586 -0.218824 -0.354036 -0.291586 -0.423476 -0.354036 -0.477936 -0.218824 -0.354036 -0.284849 -0.406627 -0.354036 -0.477936 -0.406627 -0.516699 -0.423476 -0.542976 -0.477936 -0.589561 -0.542976 -0.643789 -0.589561 -0.683847 -0.477936 -0.589561 -0.516699 -0.61435 -0.589561 -0.683847 -0.61435 -0.697582 -0.492856 -0.579297 -0.579297 -0.664391 -0.579297 -0.643789 -0.664391 -0.724689 -0.579297 -0.664391 -0.643789 -0.724689 -0.664391 -0.724689 -0.724689 -0.78085 -0.643789 -0.683847 -0.724689 -0.758702 -0.683847 -0.697582 -0.758702 -0.764614 -0.724689 -0.758702 -0.78085 -0.81124 -0.758702 -0.764614 -0.81124 -0.813909 -0.643789 -0.724689 -0.683847 -0.758702 -0.724689 -0.78085 -0.758702 -0.81124 -0.683847 -0.758702 -0.697582 -0.764614 -0.758702 -0.81124 -0.764614 -0.813909 -0.78085 -0.81124 -0.81124 -0.840032 -0.81124 -0.813909 -0.840032 -0.844275 -0.81124 -0.840032 -0.813909 -0.844275 -0.840032 -0.844275 -0.844275 -0.854548 0.854548 0.844275 0.844275 0.840032 0.844275 0.813909 0.840032 0.81124 0.844275 0.840032 0.813909 0.81124 0.840032 0.81124 0.81124 0.78085 0.813909 0.764614 0.81124 0.758702 0.764614 0.697582 0.758702 0.683847 0.81124 0.758702 0.78085 0.724689 0.758702 0.683847 0.724689 0.643789 0.813909 0.81124 0.764614 0.758702 0.81124 0.78085 0.758702 0.724689 0.764614 0.758702 0.697582 0.683847 0.758702 0.724689 0.683847 0.643789 0.78085 0.724689 0.724689 0.664391 0.724689 0.643789 0.664391 0.579297 0.724689 0.664391 0.643789 0.579297 0.664391 0.579297 0.579297 0.492856 0.697582 0.61435 0.683847 0.589561 0.61435 0.516699 0.589561 0.477936 0.683847 0.589561 0.643789 0.542976 0.589561 0.477936 0.542976 0.423476 0.516699 0.406627 0.477936 0.354036 0.406627 0.284849 0.354036 0.218824 0.477936 0.354036 0.423476 0.291586 0.354036 0.218824 0.291586 0.148605 0.643789 0.542976 0.579297 0.474228 0.542976 0.423476 0.474228 0.351468 0.579297 0.474228 0.492856 0.387677 0.474228 0.351468 0.387677 0.267643 0.423476 0.291586 0.351468 0.217645 0.291586 0.148605 0.217645 0.0751318 0.351468 0.217645 0.267643 0.136906 0.217645 0.0751318 0.136906 -7.9704e-16 0.697582 0.683847 0.61435 0.589561 0.683847 0.643789 0.589561 0.542976 0.61435 0.589561 0.516699 0.477936 0.589561 0.542976 0.477936 0.423476 0.643789 0.579297 0.542976 0.474228 0.579297 0.492856 0.474228 0.387677 0.542976 0.474228 0.423476 0.351468 0.474228 0.387677 0.351468 0.267643 0.516699 0.477936 0.406627 0.354036 0.477936 0.423476 0.354036 0.291586 0.406627 0.354036 0.284849 0.218824 0.354036 0.291586 0.218824 0.148605 0.423476 0.351468 0.291586 0.217645 0.351468 0.267643 0.217645 0.136906 0.291586 0.217645 0.148605 0.0751318 0.217645 0.136906 0.0751318 3.26366e-16 0.492856 0.387677 0.387677 0.284064 0.387677 0.267643 0.284064 0.169755 0.387677 0.284064 0.267643 0.169755 0.284064 0.169755 0.169755 0.0661031 0.267643 0.136906 0.169755 0.048503 0.136906 -7.9704e-16 0.048503 -0.0751318 0.169755 0.048503 0.0661031 -0.0417173 0.048503 -0.0751318 -0.0417173 -0.148605 0.267643 0.169755 0.136906 0.048503 0.169755 0.0661031 0.048503 -0.0417173 0.136906 0.048503 3.26366e-16 -0.0751318 0.048503 -0.0417173 -0.0751318 -0.148605 0.0661031 -0.0417173 -0.0417173 -0.131959 -0.0417173 -0.148605 -0.131959 -0.218824 -0.0417173 -0.131959 -0.148605 -0.218824 -0.131959 -0.218824 -0.218824 -0.284849 -0.284849 -0.218824 -0.406627 -0.354036 -0.218824 -0.148605 -0.354036 -0.291586 -0.406627 -0.354036 -0.516699 -0.477936 -0.354036 -0.291586 -0.477936 -0.423476 -0.148605 -0.0751318 -0.291586 -0.217645 -0.0751318 2.00582e-16 -0.217645 -0.136906 -0.291586 -0.217645 -0.423476 -0.351468 -0.217645 -0.136906 -0.351468 -0.267643 -0.516699 -0.477936 -0.61435 -0.589561 -0.477936 -0.423476 -0.589561 -0.542976 -0.61435 -0.589561 -0.697582 -0.683847 -0.589561 -0.542976 -0.683847 -0.643789 -0.423476 -0.351468 -0.542976 -0.474228 -0.351468 -0.267643 -0.474228 -0.387677 -0.542976 -0.474228 -0.643789 -0.579297 -0.474228 -0.387677 -0.579297 -0.492856 2.00582e-16 0.0751318 -0.136906 -0.048503 0.0751318 0.148605 -0.048503 0.0417173 -0.136906 -0.048503 -0.267643 -0.169755 -0.048503 0.0417173 -0.169755 -0.0661031 0.148605 0.218824 0.0417173 0.131959 0.218824 0.284849 0.131959 0.218824 0.0417173 0.131959 -0.0661031 0.0417173 0.131959 0.218824 0.0417173 0.148605 -0.267643 -0.169755 -0.387677 -0.284064 -0.169755 -0.0661031 -0.284064 -0.169755 -0.387677 -0.284064 -0.492856 -0.387677 -0.284064 -0.169755 -0.387677 -0.267643 -0.0661031 0.0417173 -0.169755 -0.048503 0.0417173 0.148605 -0.048503 0.0751318 -0.169755 -0.048503 -0.267643 -0.136906 -0.048503 0.0751318 -0.136906 3.26366e-16 -0.697582 -0.683847 -0.764614 -0.758702 -0.683847 -0.643789 -0.758702 -0.724689 -0.764614 -0.758702 -0.813909 -0.81124 -0.758702 -0.724689 -0.81124 -0.78085 -0.643789 -0.579297 -0.724689 -0.664391 -0.579297 -0.492856 -0.664391 -0.579297 -0.724689 -0.664391 -0.78085 -0.724689 -0.664391 -0.579297 -0.724689 -0.643789 -0.813909 -0.81124 -0.844275 -0.840032 -0.81124 -0.78085 -0.840032 -0.81124 -0.844275 -0.840032 -0.854548 -0.844275 -0.840032 -0.81124 -0.844275 -0.813909 -0.78085 -0.724689 -0.81124 -0.758702 -0.724689 -0.643789 -0.758702 -0.683847 -0.81124 -0.758702 -0.813909 -0.764614 -0.758702 -0.683847 -0.764614 -0.697582 -0.492856 -0.387677 -0.579297 -0.474228 -0.387677 -0.267643 -0.474228 -0.351468 -0.579297 -0.474228 -0.643789 -0.542976 -0.474228 -0.351468 -0.542976 -0.423476 -0.267643 -0.136906 -0.351468 -0.217645 -0.136906 3.26366e-16 -0.217645 -0.0751318 -0.351468 -0.217645 -0.423476 -0.291586 -0.217645 -0.0751318 -0.291586 -0.148605 -0.643789 -0.542976 -0.683847 -0.589561 -0.542976 -0.423476 -0.589561 -0.477936 -0.683847 -0.589561 -0.697582 -0.61435 -0.589561 -0.477936 -0.61435 -0.516699 -0.423476 -0.291586 -0.477936 -0.354036 -0.291586 -0.148605 -0.354036 -0.218824 -0.477936 -0.354036 -0.516699 -0.406627 -0.354036 -0.218824 -0.406627 -0.284849 0.284849 0.218824 0.406627 0.354036 0.218824 0.148605 0.354036 0.291586 0.406627 0.354036 0.516699 0.477936 0.354036 0.291586 0.477936 0.423476 0.148605 0.0751318 0.291586 0.217645 0.0751318 6.44377e-16 0.217645 0.136906 0.291586 0.217645 0.423476 0.351468 0.217645 0.136906 0.351468 0.267643 0.516699 0.477936 0.61435 0.589561 0.477936 0.423476 0.589561 0.542976 0.61435 0.589561 0.697582 0.683847 0.589561 0.542976 0.683847 0.643789 0.423476 0.351468 0.542976 0.474228 0.351468 0.267643 0.474228 0.387677 0.542976 0.474228 0.643789 0.579297 0.474228 0.387677 0.579297 0.492856 6.44377e-16 -0.0751318 0.136906 0.048503 -0.0751318 -0.148605 0.048503 -0.0417173 0.136906 0.048503 0.267643 0.169755 0.048503 -0.0417173 0.169755 0.0661031 -0.148605 -0.218824 -0.0417173 -0.131959 -0.218824 -0.284849 -0.131959 -0.218824 -0.0417173 -0.131959 0.0661031 -0.0417173 -0.131959 -0.218824 -0.0417173 -0.148605 0.267643 0.169755 0.387677 0.284064 0.169755 0.0661031 0.284064 0.169755 0.387677 0.284064 0.492856 0.387677 0.284064 0.169755 0.387677 0.267643 0.0661031 -0.0417173 0.169755 0.048503 -0.0417173 -0.148605 0.048503 -0.0751318 0.169755 0.048503 0.267643 0.136906 0.048503 -0.0751318 0.136906 8.18303e-16 0.697582 0.683847 0.764614 0.758702 0.683847 0.643789 0.758702 0.724689 0.764614 0.758702 0.813909 0.81124 0.758702 0.724689 0.81124 0.78085 0.643789 0.579297 0.724689 0.664391 0.579297 0.492856 0.664391 0.579297 0.724689 0.664391 0.78085 0.724689 0.664391 0.579297 0.724689 0.643789 0.813909 0.81124 0.844275 0.840032 0.81124 0.78085 0.840032 0.81124 0.844275 0.840032 0.854548 0.844275 0.840032 0.81124 0.844275 0.813909 0.78085 0.724689 0.81124 0.758702 0.724689 0.643789 0.758702 0.683847 0.81124 0.758702 0.813909 0.764614 0.758702 0.683847 0.764614 0.697582 0.492856 0.387677 0.579297 0.474228 0.387677 0.267643 0.474228 0.351468 0.579297 0.474228 0.643789 0.542976 0.474228 0.351468 0.542976 0.423476 0.267643 0.136906 0.351468 0.217645 0.136906 8.18303e-16 0.217645 0.0751318 0.351468 0.217645 0.423476 0.291586 0.217645 0.0751318 0.291586 0.148605 0.643789 0.542976 0.683847 0.589561 0.542976 0.423476 0.589561 0.477936 0.683847 0.589561 0.697582 0.61435 0.589561 0.477936 0.61435 0.516699 0.423476 0.291586 0.477936 0.354036 0.291586 0.148605 0.354036 0.218824 0.477936 0.354036 0.516699 0.406627 0.354036 0.218824 0.406627 0.284849 
SCALARS alpha double 1
LOOKUP_TABLE default