# vtk DataFile Version 3.0
#This file was generated by the deal.II library on 2020/7/6 at 8:07:08
ASCII
DATASET UNSTRUCTURED_GRID

POINTS 4096 double
0 0 0
0.125 0 0
0 0.125 0
0.125 0.125 0
0 0 0.125
0.125 0 0.125
0 0.125 0.125
0.125 0.125 0.125
0.125 0 0
0.25 0 0
0.125 0.125 0
0.25 0.125 0
0.125 0 0.125
0.25 0 0.125
0.125 0.125 0.125
0.25 0.125 0.125
0 0.125 0
0.125 0.125 0
0 0.25 0
0.125 0.25 0
0 0.125 0.125
0.125 0.125 0.125
0 0.25 0.125
0.125 0.25 0.125
0.125 0.125 0
0.25 0.125 0
0.125 0.25 0
0.25 0.25 0
0.125 0.125 0.125
0.25 0.125 0.125
0.125 0.25 0.125
0.25 0.25 0.125
0 0 0.125
0.125 0 0.125
0 0.125 0.125
0.125 0.125 0.125
0 0 0.25
0.125 0 0.25
0 0.125 0.25
0.125 0.125 0.25
0.125 0 0.125
0.25 0 0.125
0.125 0.125 0.125
0.25 0.125 0.125
0.125 0 0.25
0.25 0 0.25
0.125 0.125 0.25
0.25 0.125 0.25
0 0.125 0.125
0.125 0.125 0.125
0 0.25 0.125
0.125 0.25 0.125
0 0.125 0.25
0.125 0.125 0.25
0 0.25 0.25
0.125 0.25 0.25
0.125 0.125 0.125
0.25 0.125 0.125
0.125 0.25 0.125
0.25 0.25 0.125
0.125 0.125 0.25
0.25 0.125 0.25
0.125 0.25 0.25
0.25 0.25 0.25
0.25 0 0
0.375 0 0
0.25 0.125 0
0.375 0.125 0
0.25 0 0.125
0.375 0 0.125
0.25 0.125 0.125
0.375 0.125 0.125
0.375 0 0
0.5 0 0
0.375 0.125 0
0.5 0.125 0
0.375 0 0.125
0.5 0 0.125
0.375 0.125 0.125
0.5 0.125 0.125
0.25 0.125 0
0.375 0.125 0
0.25 0.25 0
0.375 0.25 0
0.25 0.125 0.125
0.375 0.125 0.125
0.25 0.25 0.125
0.375 0.25 0.125
0.375 0.125 0
0.5 0.125 0
0.375 0.25 0
0.5 0.25 0
0.375 0.125 0.125
0.5 0.125 0.125
0.375 0.25 0.125
0.5 0.25 0.125
0.25 0 0.125
0.375 0 0.125
0.25 0.125 0.125
0.375 0.125 0.125
0.25 0 0.25
0.375 0 0.25
0.25 0.125 0.25
0.375 0.125 0.25
0.375 0 0.125
0.5 0 0.125
0.375 0.125 0.125
0.5 0.125 0.125
0.375 0 0.25
0.5 0 0.25
0.375 0.125 0.25
0.5 0.125 0.25
0.25 0.125 0.125
0.375 0.125 0.125
0.25 0.25 0.125
0.375 0.25 0.125
0.25 0.125 0.25
0.375 0.125 0.25
0.25 0.25 0.25
0.375 0.25 0.25
0.375 0.125 0.125
0.5 0.125 0.125
0.375 0.25 0.125
0.5 0.25 0.125
0.375 0.125 0.25
0.5 0.125 0.25
0.375 0.25 0.25
0.5 0.25 0.25
0 0.25 0
0.125 0.25 0
0 0.375 0
0.125 0.375 0
0 0.25 0.125
0.125 0.25 0.125
0 0.375 0.125
0.125 0.375 0.125
0.125 0.25 0
0.25 0.25 0
0.125 0.375 0
0.25 0.375 0
0.125 0.25 0.125
0.25 0.25 0.125
0.125 0.375 0.125
0.25 0.375 0.125
0 0.375 0
0.125 0.375 0
0 0.5 0
0.125 0.5 0
0 0.375 0.125
0.125 0.375 0.125
0 0.5 0.125
0.125 0.5 0.125
0.125 0.375 0
0.25 0.375 0
0.125 0.5 0
0.25 0.5 0
0.125 0.375 0.125
0.25 0.375 0.125
0.125 0.5 0.125
0.25 0.5 0.125
0 0.25 0.125
0.125 0.25 0.125
0 0.375 0.125
0.125 0.375 0.125
0 0.25 0.25
0.125 0.25 0.25
0 0.375 0.25
0.125 0.375 0.25
0.125 0.25 0.125
0.25 0.25 0.125
0.125 0.375 0.125
0.25 0.375 0.125
0.125 0.25 0.25
0.25 0.25 0.25
0.125 0.375 0.25
0.25 0.375 0.25
0 0.375 0.125
0.125 0.375 0.125
0 0.5 0.125
0.125 0.5 0.125
0 0.375 0.25
0.125 0.375 0.25
0 0.5 0.25
0.125 0.5 0.25
0.125 0.375 0.125
0.25 0.375 0.125
0.125 0.5 0.125
0.25 0.5 0.125
0.125 0.375 0.25
0.25 0.375 0.25
0.125 0.5 0.25
0.25 0.5 0.25
0.25 0.25 0
0.375 0.25 0
0.25 0.375 0
0.375 0.375 0
0.25 0.25 0.125
0.375 0.25 0.125
0.25 0.375 0.125
0.375 0.375 0.125
0.375 0.25 0
0.5 0.25 0
0.375 0.375 0
0.5 0.375 0
0.375 0.25 0.125
0.5 0.25 0.125
0.375 0.375 0.125
0.5 0.375 0.125
0.25 0.375 0
0.375 0.375 0
0.25 0.5 0
0.375 0.5 0
0.25 0.375 0.125
0.375 0.375 0.125
0.25 0.5 0.125
0.375 0.5 0.125
0.375 0.375 0
0.5 0.375 0
0.375 0.5 0
0.5 0.5 0
0.375 0.375 0.125
0.5 0.375 0.125
0.375 0.5 0.125
0.5 0.5 0.125
0.25 0.25 0.125
0.375 0.25 0.125
0.25 0.375 0.125
0.375 0.375 0.125
0.25 0.25 0.25
0.375 0.25 0.25
0.25 0.375 0.25
0.375 0.375 0.25
0.375 0.25 0.125
0.5 0.25 0.125
0.375 0.375 0.125
0.5 0.375 0.125
0.375 0.25 0.25
0.5 0.25 0.25
0.375 0.375 0.25
0.5 0.375 0.25
0.25 0.375 0.125
0.375 0.375 0.125
0.25 0.5 0.125
0.375 0.5 0.125
0.25 0.375 0.25
0.375 0.375 0.25
0.25 0.5 0.25
0.375 0.5 0.25
0.375 0.375 0.125
0.5 0.375 0.125
0.375 0.5 0.125
0.5 0.5 0.125
0.375 0.375 0.25
0.5 0.375 0.25
0.375 0.5 0.25
0.5 0.5 0.25
0 0 0.25
0.125 0 0.25
0 0.125 0.25
0.125 0.125 0.25
0 0 0.375
0.125 0 0.375
0 0.125 0.375
0.125 0.125 0.375
0.125 0 0.25
0.25 0 0.25
0.125 0.125 0.25
0.25 0.125 0.25
0.125 0 0.375
0.25 0 0.375
0.125 0.125 0.375
0.25 0.125 0.375
0 0.125 0.25
0.125 0.125 0.25
0 0.25 0.25
0.125 0.25 0.25
0 0.125 0.375
0.125 0.125 0.375
0 0.25 0.375
0.125 0.25 0.375
0.125 0.125 0.25
0.25 0.125 0.25
0.125 0.25 0.25
0.25 0.25 0.25
0.125 0.125 0.375
0.25 0.125 0.375
0.125 0.25 0.375
0.25 0.25 0.375
0 0 0.375
0.125 0 0.375
0 0.125 0.375
0.125 0.125 0.375
0 0 0.5
0.125 0 0.5
0 0.125 0.5
0.125 0.125 0.5
0.125 0 0.375
0.25 0 0.375
0.125 0.125 0.375
0.25 0.125 0.375
0.125 0 0.5
0.25 0 0.5
0.125 0.125 0.5
0.25 0.125 0.5
0 0.125 0.375
0.125 0.125 0.375
0 0.25 0.375
0.125 0.25 0.375
0 0.125 0.5
0.125 0.125 0.5
0 0.25 0.5
0.125 0.25 0.5
0.125 0.125 0.375
0.25 0.125 0.375
0.125 0.25 0.375
0.25 0.25 0.375
0.125 0.125 0.5
0.25 0.125 0.5
0.125 0.25 0.5
0.25 0.25 0.5
0.25 0 0.25
0.375 0 0.25
0.25 0.125 0.25
0.375 0.125 0.25
0.25 0 0.375
0.375 0 0.375
0.25 0.125 0.375
0.375 0.125 0.375
0.375 0 0.25
0.5 0 0.25
0.375 0.125 0.25
0.5 0.125 0.25
0.375 0 0.375
0.5 0 0.375
0.375 0.125 0.375
0.5 0.125 0.375
0.25 0.125 0.25
0.375 0.125 0.25
0.25 0.25 0.25
0.375 0.25 0.25
0.25 0.125 0.375
0.375 0.125 0.375
0.25 0.25 0.375
0.375 0.25 0.375
0.375 0.125 0.25
0.5 0.125 0.25
0.375 0.25 0.25
0.5 0.25 0.25
0.375 0.125 0.375
0.5 0.125 0.375
0.375 0.25 0.375
0.5 0.25 0.375
0.25 0 0.375
0.375 0 0.375
0.25 0.125 0.375
0.375 0.125 0.375
0.25 0 0.5
0.375 0 0.5
0.25 0.125 0.5
0.375 0.125 0.5
0.375 0 0.375
0.5 0 0.375
0.375 0.125 0.375
0.5 0.125 0.375
0.375 0 0.5
0.5 0 0.5
0.375 0.125 0.5
0.5 0.125 0.5
0.25 0.125 0.375
0.375 0.125 0.375
0.25 0.25 0.375
0.375 0.25 0.375
0.25 0.125 0.5
0.375 0.125 0.5
0.25 0.25 0.5
0.375 0.25 0.5
0.375 0.125 0.375
0.5 0.125 0.375
0.375 0.25 0.375
0.5 0.25 0.375
0.375 0.125 0.5
0.5 0.125 0.5
0.375 0.25 0.5
0.5 0.25 0.5
0 0.25 0.25
0.125 0.25 0.25
0 0.375 0.25
0.125 0.375 0.25
0 0.25 0.375
0.125 0.25 0.375
0 0.375 0.375
0.125 0.375 0.375
0.125 0.25 0.25
0.25 0.25 0.25
0.125 0.375 0.25
0.25 0.375 0.25
0.125 0.25 0.375
0.25 0.25 0.375
0.125 0.375 0.375
0.25 0.375 0.375
0 0.375 0.25
0.125 0.375 0.25
0 0.5 0.25
0.125 0.5 0.25
0 0.375 0.375
0.125 0.375 0.375
0 0.5 0.375
0.125 0.5 0.375
0.125 0.375 0.25
0.25 0.375 0.25
0.125 0.5 0.25
0.25 0.5 0.25
0.125 0.375 0.375
0.25 0.375 0.375
0.125 0.5 0.375
0.25 0.5 0.375
0 0.25 0.375
0.125 0.25 0.375
0 0.375 0.375
0.125 0.375 0.375
0 0.25 0.5
0.125 0.25 0.5
0 0.375 0.5
0.125 0.375 0.5
0.125 0.25 0.375
0.25 0.25 0.375
0.125 0.375 0.375
0.25 0.375 0.375
0.125 0.25 0.5
0.25 0.25 0.5
0.125 0.375 0.5
0.25 0.375 0.5
0 0.375 0.375
0.125 0.375 0.375
0 0.5 0.375
0.125 0.5 0.375
0 0.375 0.5
0.125 0.375 0.5
0 0.5 0.5
0.125 0.5 0.5
0.125 0.375 0.375
0.25 0.375 0.375
0.125 0.5 0.375
0.25 0.5 0.375
0.125 0.375 0.5
0.25 0.375 0.5
0.125 0.5 0.5
0.25 0.5 0.5
0.25 0.25 0.25
0.375 0.25 0.25
0.25 0.375 0.25
0.375 0.375 0.25
0.25 0.25 0.375
0.375 0.25 0.375
0.25 0.375 0.375
0.375 0.375 0.375
0.375 0.25 0.25
0.5 0.25 0.25
0.375 0.375 0.25
0.5 0.375 0.25
0.375 0.25 0.375
0.5 0.25 0.375
0.375 0.375 0.375
0.5 0.375 0.375
0.25 0.375 0.25
0.375 0.375 0.25
0.25 0.5 0.25
0.375 0.5 0.25
0.25 0.375 0.375
0.375 0.375 0.375
0.25 0.5 0.375
0.375 0.5 0.375
0.375 0.375 0.25
0.5 0.375 0.25
0.375 0.5 0.25
0.5 0.5 0.25
0.375 0.375 0.375
0.5 0.375 0.375
0.375 0.5 0.375
0.5 0.5 0.375
0.25 0.25 0.375
0.375 0.25 0.375
0.25 0.375 0.375
0.375 0.375 0.375
0.25 0.25 0.5
0.375 0.25 0.5
0.25 0.375 0.5
0.375 0.375 0.5
0.375 0.25 0.375
0.5 0.25 0.375
0.375 0.375 0.375
0.5 0.375 0.375
0.375 0.25 0.5
0.5 0.25 0.5
0.375 0.375 0.5
0.5 0.375 0.5
0.25 0.375 0.375
0.375 0.375 0.375
0.25 0.5 0.375
0.375 0.5 0.375
0.25 0.375 0.5
0.375 0.375 0.5
0.25 0.5 0.5
0.375 0.5 0.5
0.375 0.375 0.375
0.5 0.375 0.375
0.375 0.5 0.375
0.5 0.5 0.375
0.375 0.375 0.5
0.5 0.375 0.5
0.375 0.5 0.5
0.5 0.5 0.5
0.5 0 0
0.625 0 0
0.5 0.125 0
0.625 0.125 0
0.5 0 0.125
0.625 0 0.125
0.5 0.125 0.125
0.625 0.125 0.125
0.625 0 0
0.75 0 0
0.625 0.125 0
0.75 0.125 0
0.625 0 0.125
0.75 0 0.125
0.625 0.125 0.125
0.75 0.125 0.125
0.5 0.125 0
0.625 0.125 0
0.5 0.25 0
0.625 0.25 0
0.5 0.125 0.125
0.625 0.125 0.125
0.5 0.25 0.125
0.625 0.25 0.125
0.625 0.125 0
0.75 0.125 0
0.625 0.25 0
0.75 0.25 0
0.625 0.125 0.125
0.75 0.125 0.125
0.625 0.25 0.125
0.75 0.25 0.125
0.5 0 0.125
0.625 0 0.125
0.5 0.125 0.125
0.625 0.125 0.125
0.5 0 0.25
0.625 0 0.25
0.5 0.125 0.25
0.625 0.125 0.25
0.625 0 0.125
0.75 0 0.125
0.625 0.125 0.125
0.75 0.125 0.125
0.625 0 0.25
0.75 0 0.25
0.625 0.125 0.25
0.75 0.125 0.25
0.5 0.125 0.125
0.625 0.125 0.125
0.5 0.25 0.125
0.625 0.25 0.125
0.5 0.125 0.25
0.625 0.125 0.25
0.5 0.25 0.25
0.625 0.25 0.25
0.625 0.125 0.125
0.75 0.125 0.125
0.625 0.25 0.125
0.75 0.25 0.125
0.625 0.125 0.25
0.75 0.125 0.25
0.625 0.25 0.25
0.75 0.25 0.25
0.75 0 0
0.875 0 0
0.75 0.125 0
0.875 0.125 0
0.75 0 0.125
0.875 0 0.125
0.75 0.125 0.125
0.875 0.125 0.125
0.875 0 0
1 0 0
0.875 0.125 0
1 0.125 0
0.875 0 0.125
1 0 0.125
0.875 0.125 0.125
1 0.125 0.125
0.75 0.125 0
0.875 0.125 0
0.75 0.25 0
0.875 0.25 0
0.75 0.125 0.125
0.875 0.125 0.125
0.75 0.25 0.125
0.875 0.25 0.125
0.875 0.125 0
1 0.125 0
0.875 0.25 0
1 0.25 0
0.875 0.125 0.125
1 0.125 0.125
0.875 0.25 0.125
1 0.25 0.125
0.75 0 0.125
0.875 0 0.125
0.75 0.125 0.125
0.875 0.125 0.125
0.75 0 0.25
0.875 0 0.25
0.75 0.125 0.25
0.875 0.125 0.25
0.875 0 0.125
1 0 0.125
0.875 0.125 0.125
1 0.125 0.125
0.875 0 0.25
1 0 0.25
0.875 0.125 0.25
1 0.125 0.25
0.75 0.125 0.125
0.875 0.125 0.125
0.75 0.25 0.125
0.875 0.25 0.125
0.75 0.125 0.25
0.875 0.125 0.25
0.75 0.25 0.25
0.875 0.25 0.25
0.875 0.125 0.125
1 0.125 0.125
0.875 0.25 0.125
1 0.25 0.125
0.875 0.125 0.25
1 0.125 0.25
0.875 0.25 0.25
1 0.25 0.25
0.5 0.25 0
0.625 0.25 0
0.5 0.375 0
0.625 0.375 0
0.5 0.25 0.125
0.625 0.25 0.125
0.5 0.375 0.125
0.625 0.375 0.125
0.625 0.25 0
0.75 0.25 0
0.625 0.375 0
0.75 0.375 0
0.625 0.25 0.125
0.75 0.25 0.125
0.625 0.375 0.125
0.75 0.375 0.125
0.5 0.375 0
0.625 0.375 0
0.5 0.5 0
0.625 0.5 0
0.5 0.375 0.125
[...]
POINT_DATA 4096
VECTORS velocity double
0 0 0
0.765367 0 0
0 -0.392699 0
0.765367 -0.362807 0
0 0 -0.392699
0.765367 0 -0.362807
0 -0.392699 -0.392699
0.765355 -0.362825 -0.362822
0.765367 0 0
1.41421 0 0
0.765367 -0.362807 0
1.41421 -0.27768 0
0.765367 0 -0.362807
1.41421 0 -0.27768
0.765355 -0.362825 -0.362822
1.4142 -0.277695 -0.277691
0 -0.392699 0
0.765367 -0.362807 0
0 -0.785398 0
0.765367 -0.725613 0
0 -0.392699 -0.392699
0.765355 -0.362825 -0.362822
0 -0.785398 -0.392699
0.765353 -0.725631 -0.362823
0.765367 -0.362807 0
1.41421 -0.27768 0
0.765367 -0.725613 0
1.41421 -0.55536 0
0.765355 -0.362825 -0.362822
1.4142 -0.277695 -0.277691
0.765353 -0.725631 -0.362823
1.41419 -0.555377 -0.277692
0 0 -0.392699
0.765367 0 -0.362807
0 -0.392699 -0.392699
0.765355 -0.362825 -0.362822
0 0 -0.785398
0.765367 0 -0.725613
0 -0.392699 -0.785398
0.765354 -0.362826 -0.72563
0.765367 0 -0.362807
1.41421 0 -0.27768
0.765355 -0.362825 -0.362822
1.4142 -0.277695 -0.277691
0.765367 0 -0.725613
1.41421 0 -0.55536
0.765354 -0.362826 -0.72563
1.41419 -0.277695 -0.555377
0 -0.392699 -0.392699
0.765355 -0.362825 -0.362822
0 -0.785398 -0.392699
0.765353 -0.725631 -0.362823
0 -0.392699 -0.785398
0.765354 -0.362826 -0.72563
0 -0.785398 -0.785398
0.76535 -0.725633 -0.725633
0.765355 -0.362825 -0.362822
1.4142 -0.277695 -0.277691
0.765353 -0.725631 -0.362823
1.41419 -0.555377 -0.277692
0.765354 -0.362826 -0.72563
1.41419 -0.277695 -0.555377
0.76535 -0.725633 -0.725633
1.41417 -0.555379 -0.55538
1.41421 0 0
1.84776 0 0
1.41421 -0.27768 0
1.84776 -0.150279 0
1.41421 0 -0.27768
1.84776 0 -0.150279
1.4142 -0.277695 -0.277691
1.84775 -0.150288 -0.150283
1.84776 0 0
2 0 0
1.84776 -0.150279 0
2 -2.40459e-17 0
1.84776 0 -0.150279
2 0 -2.40459e-17
1.84775 -0.150288 -0.150283
1.99999 -1.29672e-06 4.10537e-06
1.41421 -0.27768 0
1.84776 -0.150279 0
1.41421 -0.55536 0
1.84776 -0.300559 0
1.4142 -0.277695 -0.277691
1.84775 -0.150288 -0.150283
1.41419 -0.555377 -0.277692
1.84773 -0.300568 -0.150284
1.84776 -0.150279 0
2 -2.40459e-17 0
1.84776 -0.300559 0
2 -4.80918e-17 0
1.84775 -0.150288 -0.150283
1.99999 -1.29672e-06 4.10537e-06
1.84773 -0.300568 -0.150284
1.99997 -8.63698e-07 3.91517e-06
1.41421 0 -0.27768
1.84776 0 -0.150279
1.4142 -0.277695 -0.277691
1.84775 -0.150288 -0.150283
1.41421 0 -0.55536
1.84776 0 -0.300559
1.41419 -0.277695 -0.555377
1.84773 -0.150286 -0.30057
1.84776 0 -0.150279
2 0 -2.40459e-17
1.84775 -0.150288 -0.150283
1.99999 -1.29672e-06 4.10537e-06
1.84776 0 -0.300559
2 0 -4.80918e-17
1.84773 -0.150286 -0.30057
1.99997 1.08442e-06 -2.37832e-06
1.4142 -0.277695 -0.277691
1.84775 -0.150288 -0.150283
1.41419 -0.555377 -0.277692
1.84773 -0.300568 -0.150284
1.41419 -0.277695 -0.555377
1.84773 -0.150286 -0.30057
1.41417 -0.555379 -0.55538
1.84771 -0.300569 -0.300571
1.84775 -0.150288 -0.150283
1.99999 -1.29672e-06 4.10537e-06
1.84773 -0.300568 -0.150284
1.99997 -8.63698e-07 3.91517e-06
1.84773 -0.150286 -0.30057
1.99997 1.08442e-06 -2.37832e-06
1.84771 -0.300569 -0.300571
1.99995 7.51155e-07 -2.15375e-06
0 -0.785398 0
0.765367 -0.725613 0
0 -1.1781 0
0.765367 -1.08842 0
0 -0.785398 -0.392699
0.765353 -0.725631 -0.362823
0 -1.1781 -0.392699
0.765353 -1.08843 -0.362823
0.765367 -0.725613 0
1.41421 -0.55536 0
0.765367 -1.08842 0
1.41421 -0.833041 0
0.765353 -0.725631 -0.362823
1.41419 -0.555377 -0.277692
0.765353 -1.08843 -0.362823
1.41419 -0.833053 -0.277693
0 -1.1781 0
0.765367 -1.08842 0
0 -1.5708 0
0.765367 -1.45123 0
0 -1.1781 -0.392699
0.765353 -1.08843 -0.362823
0 -1.5708 -0.392699
0.765352 -1.45123 -0.362824
0.765367 -1.08842 0
1.41421 -0.833041 0
0.765367 -1.45123 0
1.41421 -1.11072 0
0.765353 -1.08843 -0.362823
1.41419 -0.833053 -0.277693
0.765352 -1.45123 -0.362824
1.41419 -1.11073 -0.277695
0 -0.785398 -0.392699
0.765353 -0.725631 -0.362823
0 -1.1781 -0.392699
0.765353 -1.08843 -0.362823
0 -0.785398 -0.785398
0.76535 -0.725633 -0.725633
0 -1.1781 -0.785398
0.765348 -1.08843 -0.725633
0.765353 -0.725631 -0.362823
1.41419 -0.555377 -0.277692
0.765353 -1.08843 -0.362823
1.41419 -0.833053 -0.277693
0.76535 -0.725633 -0.725633
1.41417 -0.555379 -0.55538
0.765348 -1.08843 -0.725633
1.41417 -0.833055 -0.555379
0 -1.1781 -0.392699
0.765353 -1.08843 -0.362823
0 -1.5708 -0.392699
0.765352 -1.45123 -0.362824
0 -1.1781 -0.785398
0.765348 -1.08843 -0.725633
0 -1.5708 -0.785398
0.765347 -1.45123 -0.725632
0.765353 -1.08843 -0.362823
1.41419 -0.833053 -0.277693
0.765352 -1.45123 -0.362824
1.41419 -1.11073 -0.277695
0.765348 -1.08843 -0.725633
1.41417 -0.833055 -0.555379
0.765347 -1.45123 -0.725632
1.41417 -1.11073 -0.555378
1.41421 -0.55536 0
1.84776 -0.300559 0
1.41421 -0.833041 0
1.84776 -0.450838 0
1.41419 -0.555377 -0.277692
1.84773 -0.300568 -0.150284
1.41419 -0.833053 -0.277693
1.84773 -0.450846 -0.150285
1.84776 -0.300559 0
2 -4.80918e-17 0
1.84776 -0.450838 0
2 -7.21377e-17 0
1.84773 -0.300568 -0.150284
1.99997 -8.63698e-07 3.91517e-06
1.84773 -0.450846 -0.150285
1.99997 -4.31107e-07 2.26591e-06
1.41421 -0.833041 0
1.84776 -0.450838 0
1.41421 -1.11072 0
1.84776 -0.601118 0
1.41419 -0.833053 -0.277693
1.84773 -0.450846 -0.150285
1.41419 -1.11073 -0.277695
1.84773 -0.601123 -0.150287
1.84776 -0.450838 0
2 -7.21377e-17 0
1.84776 -0.601118 0
2 -9.61835e-17 0
1.84773 -0.450846 -0.150285
1.99997 -4.31107e-07 2.26591e-06
1.84773 -0.601123 -0.150287
1.99997 -3.53859e-07 -3.58955e-13
1.41419 -0.555377 -0.277692
1.84773 -0.300568 -0.150284
1.41419 -0.833053 -0.277693
1.84773 -0.450846 -0.150285
1.41417 -0.555379 -0.55538
1.84771 -0.300569 -0.300571
1.41417 -0.833055 -0.555379
1.84771 -0.450846 -0.30057
1.84773 -0.300568 -0.150284
1.99997 -8.63698e-07 3.91517e-06
1.84773 -0.450846 -0.150285
1.99997 -4.31107e-07 2.26591e-06
1.84771 -0.300569 -0.300571
1.99995 7.51155e-07 -2.15375e-06
1.84771 -0.450846 -0.30057
1.99994 2.47961e-07 -1.13975e-06
1.41419 -0.833053 -0.277693
1.84773 -0.450846 -0.150285
1.41419 -1.11073 -0.277695
1.84773 -0.601123 -0.150287
1.41417 -0.833055 -0.555379
1.84771 -0.450846 -0.30057
1.41417 -1.11073 -0.555378
1.84771 -0.601123 -0.300569
1.84773 -0.450846 -0.150285
1.99997 -4.31107e-07 2.26591e-06
1.84773 -0.601123 -0.150287
1.99997 -3.53859e-07 -3.58955e-13
1.84771 -0.450846 -0.30057
1.99994 2.47961e-07 -1.13975e-06
1.84771 -0.601123 -0.300569
1.99994 6.75099e-08 -6.39489e-13
0 0 -0.785398
0.765367 0 -0.725613
0 -0.392699 -0.785398
0.765354 -0.362826 -0.72563
0 0 -1.1781
0.765367 0 -1.08842
0 -0.392699 -1.1781
0.765355 -0.362826 -1.08843
0.765367 0 -0.725613
1.41421 0 -0.55536
0.765354 -0.362826 -0.72563
1.41419 -0.277695 -0.555377
0.765367 0 -1.08842
1.41421 0 -0.833041
0.765355 -0.362826 -1.08843
1.41419 -0.277694 -0.833052
0 -0.392699 -0.785398
0.765354 -0.362826 -0.72563
0 -0.785398 -0.785398
0.76535 -0.725633 -0.725633
0 -0.392699 -1.1781
0.765355 -0.362826 -1.08843
0 -0.785398 -1.1781
0.76535 -0.725633 -1.08843
0.765354 -0.362826 -0.72563
1.41419 -0.277695 -0.555377
0.76535 -0.725633 -0.725633
1.41417 -0.555379 -0.55538
0.765355 -0.362826 -1.08843
1.41419 -0.277694 -0.833052
0.76535 -0.725633 -1.08843
1.41417 -0.555378 -0.833055
0 0 -1.1781
0.765367 0 -1.08842
0 -0.392699 -1.1781
0.765355 -0.362826 -1.08843
0 0 -1.5708
0.765367 0 -1.45123
0 -0.392699 -1.5708
0.765356 -0.362826 -1.45123
0.765367 0 -1.08842
1.41421 0 -0.833041
0.765355 -0.362826 -1.08843
1.41419 -0.277694 -0.833052
0.765367 0 -1.45123
1.41421 0 -1.11072
0.765356 -0.362826 -1.45123
1.41419 -0.277694 -1.11073
0 -0.392699 -1.1781
0.765355 -0.362826 -1.08843
0 -0.785398 -1.1781
0.76535 -0.725633 -1.08843
0 -0.392699 -1.5708
0.765356 -0.362826 -1.45123
0 -0.785398 -1.5708
0.765351 -0.725633 -1.45123
0.765355 -0.362826 -1.08843
1.41419 -0.277694 -0.833052
0.76535 -0.725633 -1.08843
1.41417 -0.555378 -0.833055
0.765356 -0.362826 -1.45123
1.41419 -0.277694 -1.11073
0.765351 -0.725633 -1.45123
1.41417 -0.555378 -1.11073
1.41421 0 -0.55536
1.84776 0 -0.300559
1.41419 -0.277695 -0.555377
1.84773 -0.150286 -0.30057
1.41421 0 -0.833041
1.84776 0 -0.450838
1.41419 -0.277694 -0.833052
1.84773 -0.150285 -0.450845
1.84776 0 -0.300559
2 0 -4.80918e-17
1.84773 -0.150286 -0.30057
1.99997 1.08442e-06 -2.37832e-06
1.84776 0 -0.450838
2 0 -7.21377e-17
1.84773 -0.150285 -0.450845
1.99997 2.66813e-06 1.384e-07
1.41419 -0.277695 -0.555377
1.84773 -0.150286 -0.30057
1.41417 -0.555379 -0.55538
1.84771 -0.300569 -0.300571
1.41419 -0.277694 -0.833052
1.84773 -0.150285 -0.450845
1.41417 -0.555378 -0.833055
1.8477 -0.300567 -0.450847
1.84773 -0.150286 -0.30057
1.99997 1.08442e-06 -2.37832e-06
1.84771 -0.300569 -0.300571
1.99995 7.51155e-07 -2.15375e-06
1.84773 -0.150285 -0.450845
1.99997 2.66813e-06 1.384e-07
1.8477 -0.300567 -0.450847
1.99994 2.34955e-06 -3.78825e-07
1.41421 0 -0.833041
1.84776 0 -0.450838
1.41419 -0.277694 -0.833052
1.84773 -0.150285 -0.450845
1.41421 0 -1.11072
1.84776 0 -0.601118
1.41419 -0.277694 -1.11073
1.84773 -0.150285 -0.601122
1.84776 0 -0.450838
2 0 -7.21377e-17
1.84773 -0.150285 -0.450845
1.99997 2.66813e-06 1.384e-07
1.84776 0 -0.601118
2 0 -9.61835e-17
1.84773 -0.150285 -0.601122
1.99997 3.05263e-06 4.03191e-14
1.41419 -0.277694 -0.833052
1.84773 -0.150285 -0.450845
1.41417 -0.555378 -0.833055
1.8477 -0.300567 -0.450847
1.41419 -0.277694 -1.11073
1.84773 -0.150285 -0.601122
1.41417 -0.555378 -1.11073
1.84771 -0.300567 -0.601122
1.84773 -0.150285 -0.450845
1.99997 2.66813e-06 1.384e-07
1.8477 -0.300567 -0.450847
1.99994 2.34955e-06 -3.78825e-07
1.84773 -0.150285 -0.601122
1.99997 3.05263e-06 4.03191e-14
1.84771 -0.300567 -0.601122
1.99994 2.92332e-06 -2.83504e-14
0 -0.785398 -0.785398
0.76535 -0.725633 -0.725633
0 -1.1781 -0.785398
0.765348 -1.08843 -0.725633
0 -0.785398 -1.1781
0.76535 -0.725633 -1.08843
0 -1.1781 -1.1781
0.765347 -1.08843 -1.08843
0.76535 -0.725633 -0.725633
1.41417 -0.555379 -0.55538
0.765348 -1.08843 -0.725633
1.41417 -0.833055 -0.555379
0.76535 -0.725633 -1.08843
1.41417 -0.555378 -0.833055
0.765347 -1.08843 -1.08843
1.41417 -0.833054 -0.833055
0 -1.1781 -0.785398
0.765348 -1.08843 -0.725633
0 -1.5708 -0.785398
0.765347 -1.45123 -0.725632
0 -1.1781 -1.1781
0.765347 -1.08843 -1.08843
0 -1.5708 -1.1781
0.765346 -1.45123 -1.08843
0.765348 -1.08843 -0.725633
1.41417 -0.833055 -0.555379
0.765347 -1.45123 -0.725632
1.41417 -1.11073 -0.555378
0.765347 -1.08843 -1.08843
1.41417 -0.833054 -0.833055
0.765346 -1.45123 -1.08843
1.41417 -1.11073 -0.833054
0 -0.785398 -1.1781
0.76535 -0.725633 -1.08843
0 -1.1781 -1.1781
0.765347 -1.08843 -1.08843
0 -0.785398 -1.5708
0.765351 -0.725633 -1.45123
0 -1.1781 -1.5708
0.765348 -1.08843 -1.45123
0.76535 -0.725633 -1.08843
1.41417 -0.555378 -0.833055
0.765347 -1.08843 -1.08843
1.41417 -0.833054 -0.833055
0.765351 -0.725633 -1.45123
1.41417 -0.555378 -1.11073
0.765348 -1.08843 -1.45123
1.41417 -0.833054 -1.11073
0 -1.1781 -1.1781
0.765347 -1.08843 -1.08843
0 -1.5708 -1.1781
0.765346 -1.45123 -1.08843
0 -1.1781 -1.5708
0.765348 -1.08843 -1.45123
0 -1.5708 -1.5708
0.765346 -1.45123 -1.45123
0.765347 -1.08843 -1.08843
1.41417 -0.833054 -0.833055
0.765346 -1.45123 -1.08843
1.41417 -1.11073 -0.833054
0.765348 -1.08843 -1.45123
1.41417 -0.833054 -1.11073
0.765346 -1.45123 -1.45123
1.41417 -1.11073 -1.11073
1.41417 -0.555379 -0.55538
1.84771 -0.300569 -0.300571
1.41417 -0.833055 -0.555379
1.84771 -0.450846 -0.30057
1.41417 -0.555378 -0.833055
1.8477 -0.300567 -0.450847
1.41417 -0.833054 -0.833055
1.8477 -0.450846 -0.450847
1.84771 -0.300569 -0.300571
1.99995 7.51155e-07 -2.15375e-06
1.84771 -0.450846 -0.30057
1.99994 2.47961e-07 -1.13975e-06
1.8477 -0.300567 -0.450847
1.99994 2.34955e-06 -3.78825e-07
1.8477 -0.450846 -0.450847
1.99993 1.26851e-06 -2.57433e-07
1.41417 -0.833055 -0.555379
1.84771 -0.450846 -0.30057
1.41417 -1.11073 -0.555378
1.84771 -0.601123 -0.300569
1.41417 -0.833054 -0.833055
1.8477 -0.450846 -0.450847
1.41417 -1.11073 -0.833054
1.8477 -0.601122 -0.450847
1.84771 -0.450846 -0.30057
1.99994 2.47961e-07 -1.13975e-06
1.84771 -0.601123 -0.300569
1.99994 6.75099e-08 -6.39489e-13
1.8477 -0.450846 -0.450847
1.99993 1.26851e-06 -2.57433e-07
1.8477 -0.601122 -0.450847
1.99993 8.38708e-07 -2.38438e-13
1.41417 -0.555378 -0.833055
1.8477 -0.300567 -0.450847
1.41417 -0.833054 -0.833055
1.8477 -0.450846 -0.450847
1.41417 -0.555378 -1.11073
1.84771 -0.300567 -0.601122
1.41417 -0.833054 -1.11073
1.8477 -0.450845 -0.601122
1.8477 -0.300567 -0.450847
1.99994 2.34955e-06 -3.78825e-07
1.8477 -0.450846 -0.450847
1.99993 1.26851e-06 -2.57433e-07
1.84771 -0.300567 -0.601122
1.99994 2.92332e-06 -2.83504e-14
1.8477 -0.450845 -0.601122
1.99993 1.71081e-06 2.18621e-13
1.41417 -0.833054 -0.833055
1.8477 -0.450846 -0.450847
1.41417 -1.11073 -0.833054
1.8477 -0.601122 -0.450847
1.41417 -0.833054 -1.11073
1.8477 -0.450845 -0.601122
1.41417 -1.11073 -1.11073
1.8477 -0.601121 -0.601122
1.8477 -0.450846 -0.450847
1.99993 1.26851e-06 -2.57433e-07
1.8477 -0.601122 -0.450847
1.99993 8.38708e-07 -2.38438e-13
1.8477 -0.450845 -0.601122
1.99993 1.71081e-06 2.18621e-13
1.8477 -0.601121 -0.601122
1.99993 1.20253e-06 1.14063e-14
2 0 0
1.84776 0 0
2 -2.40459e-17 0
1.84776 0.150279 0
2 0 -2.40459e-17
1.84776 0 0.150279
1.99999 -1.29672e-06 4.10537e-06
1.84775 0.150285 0.15029
1.84776 0 0
1.41421 0 0
1.84776 0.150279 0
1.41421 0.27768 0
1.84776 0 0.150279
1.41421 0 0.27768
1.84775 0.150285 0.15029
1.4142 0.277692 0.277697
2 -2.40459e-17 0
1.84776 0.150279 0
2 -4.80918e-17 0
1.84776 0.300559 0
1.99999 -1.29672e-06 4.10537e-06
1.84775 0.150285 0.15029
1.99997 -8.63698e-07 3.91517e-06
1.84773 0.300566 0.150291
1.84776 0.150279 0
1.41421 0.27768 0
1.84776 0.300559 0
1.41421 0.55536 0
1.84775 0.150285 0.15029
1.4142 0.277692 0.277697
1.84773 0.300566 0.150291
1.41419 0.555374 0.277698
2 0 -2.40459e-17
1.84776 0 0.150279
1.99999 -1.29672e-06 4.10537e-06
1.84775 0.150285 0.15029
2 0 -4.80918e-17
1.84776 0 0.300559
1.99997 1.08442e-06 -2.37832e-06
1.84773 0.150288 0.300565
1.84776 0 0.150279
1.41421 0 0.27768
1.84775 0.150285 0.15029
1.4142 0.277692 0.277697
1.84776 0 0.300559
1.41421 0 0.55536
1.84773 0.150288 0.300565
1.41419 0.277695 0.555374
1.99999 -1.29672e-06 4.10537e-06
1.84775 0.150285 0.15029
1.99997 -8.63698e-07 3.91517e-06
1.84773 0.300566 0.150291
1.99997 1.08442e-06 -2.37832e-06
1.84773 0.150288 0.300565
1.99995 7.51155e-07 -2.15375e-06
1.84771 0.300569 0.300567
1.84775 0.150285 0.15029
1.4142 0.277692 0.277697
1.84773 0.300566 0.150291
1.41419 0.555374 0.277698
1.84773 0.150288 0.300565
1.41419 0.277695 0.555374
1.84771 0.300569 0.300567
1.41418 0.555378 0.555377
1.41421 0 0
0.765367 0 0
1.41421 0.27768 0
0.765367 0.362807 0
1.41421 0 0.27768
0.765367 0 0.362807
1.4142 0.277692 0.277697
0.765351 0.362822 0.362825
0.765367 0 0
2.44929e-16 0 0
0.765367 0.362807 0
2.44929e-16 0.392699 0
0.765367 0 0.362807
2.44929e-16 0 0.392699
0.765351 0.362822 0.362825
2.44929e-16 0.392699 0.392699
1.41421 0.27768 0
0.765367 0.362807 0
1.41421 0.55536 0
0.765367 0.725613 0
1.4142 0.277692 0.277697
0.765351 0.362822 0.362825
1.41419 0.555374 0.277698
0.76535 0.725628 0.362826
0.765367 0.362807 0
2.44929e-16 0.392699 0
0.765367 0.725613 0
2.44929e-16 0.785398 0
0.765351 0.362822 0.362825
2.44929e-16 0.392699 0.392699
0.76535 0.725628 0.362826
2.44929e-16 0.785398 0.392699
1.41421 0 0.27768
0.765367 0 0.362807
1.4142 0.277692 0.277697
0.765351 0.362822 0.362825
1.41421 0 0.55536
0.765367 0 0.725613
1.41419 0.277695 0.555374
0.765348 0.362823 0.725629
0.765367 0 0.362807
2.44929e-16 0 0.392699
0.765351 0.362822 0.362825
2.44929e-16 0.392699 0.392699
0.765367 0 0.725613
2.44929e-16 0 0.785398
0.765348 0.362823 0.725629
2.44929e-16 0.392699 0.785398
1.4142 0.277692 0.277697
0.765351 0.362822 0.362825
1.41419 0.555374 0.277698
0.76535 0.725628 0.362826
1.41419 0.277695 0.555374
0.765348 0.362823 0.725629
1.41418 0.555378 0.555377
0.765344 0.725631 0.725631
0.765351 0.362822 0.362825
2.44929e-16 0.392699 0.392699
0.76535 0.725628 0.362826
2.44929e-16 0.785398 0.392699
0.765348 0.362823 0.725629
2.44929e-16 0.392699 0.785398
0.765344 0.725631 0.725631
2.44929e-16 0.785398 0.785398
2 -4.80918e-17 0
1.84776 0.300559 0
2 -7.21377e-17 0
1.84776 0.450838 0
1.99997 -8.63698e-07 3.91517e-06
1.84773 0.300566 0.150291
1.99997 -4.31107e-07 2.26591e-06
1.84773 0.450845 0.150289
1.84776 0.300559 0
1.41421 0.55536 0
1.84776 0.450838 0
1.41421 0.833041 0
1.84773 0.300566 0.150291
1.41419 0.555374 0.277698
1.84773 0.450845 0.150289
1.41419 0.833052 0.277696
2 -7.21377e-17 0
1.84776 0.450838 0
2 -9.61835e-17 0
1.84776 0.601118 0
1.99997 -4.31107e-07 2.26591e-06
1.84773 0.450845 0.150289
1.99997 -3.53859e-07 -3.58955e-13
1.84773 0.601122 0.150287
1.84776 0.450838 0
1.41421 0.833041 0
1.84776 0.601118 0
1.41421 1.11072 0
1.84773 0.450845 0.150289
1.41419 0.833052 0.277696
1.84773 0.601122 0.150287
1.41419 1.11073 0.277695
1.99997 -8.63698e-07 3.91517e-06
1.84773 0.300566 0.150291
1.99997 -4.31107e-07 2.26591e-06
1.84773 0.450845 0.150289
1.99995 7.51155e-07 -2.15375e-06
1.84771 0.300569 0.300567
1.99994 2.47961e-07 -1.13975e-06
1.84771 0.450846 0.300568
1.84773 0.300566 0.150291
1.41419 0.555374 0.277698
1.84773 0.450845 0.150289
1.41419 0.833052 0.277696
1.84771 0.300569 0.300567
1.41418 0.555378 0.555377
1.84771 0.450846 0.300568
1.41417 0.833054 0.555378
1.99997 -4.31107e-07 2.26591e-06
1.84773 0.450845 0.150289
1.99997 -3.53859e-07 -3.58955e-13
1.84773 0.601122 0.150287
1.99994 2.47961e-07 -1.13975e-06
1.84771 0.450846 0.300568
1.99994 6.75099e-08 -6.39489e-13
1.84771 0.601122 0.300569
1.84773 0.450845 0.150289
1.41419 0.833052 0.277696
1.84773 0.601122 0.150287
1.41419 1.11073 0.277695
1.84771 0.450846 0.300568
1.41417 0.833054 0.555378
1.84771 0.601122 0.300569
1.41417 1.11073 0.555378
1.41421 0.55536 0
0.765367 0.725613 0
1.41421 0.833041 0
0.765367 1.08842 0
1.41419 0.555374 0.277698
0.76535 0.725628 0.362826
1.41419 0.833052 0.277696
0.765351 1.08843 0.362825
0.765367 0.725613 0
2.44929e-16 0.785398 0
0.765367 1.08842 0
2.44929e-16 1.1781 0
0.76535 0.725628 0.362826
2.44929e-16 0.785398 0.392699
0.765351 1.08843 0.362825
2.44929e-16 1.1781 0.392699
1.41421 0.833041 0
0.765367 1.08842 0
1.41421 1.11072 0
0.765367 1.45123 0
1.41419 0.833052 0.277696
0.765351 1.08843 0.362825
1.41419 1.11073 0.277695
0.765352 1.45123 0.362824
0.765367 1.08842 0
2.44929e-16 1.1781 0
0.765367 1.45123 0
2.44929e-16 1.5708 0
0.765351 1.08843 0.362825
2.44929e-16 1.1781 0.392699
0.765352 1.45123 0.362824
2.44929e-16 1.5708 0.392699
1.41419 0.555374 0.277698
0.76535 0.725628 0.362826
1.41419 0.833052 0.277696
0.765351 1.08843 0.362825
1.41418 0.555378 0.555377
0.765344 0.725631 0.725631
1.41417 0.833054 0.555378
0.765345 1.08843 0.725632
0.76535 0.725628 0.362826
2.44929e-16 0.785398 0.392699
0.765351 1.08843 0.362825
2.44929e-16 1.1781 0.392699
0.765344 0.725631 0.725631
2.44929e-16 0.785398 0.785398
0.765345 1.08843 0.725632
2.44929e-16 1.1781 0.785398
1.41419 0.833052 0.277696
0.765351 1.08843 0.362825
1.41419 1.11073 0.277695
0.765352 1.45123 0.362824
1.41417 0.833054 0.555378
0.765345 1.08843 0.725632
1.41417 1.11073 0.555378
0.765347 1.45123 0.725632
0.765351 1.08843 0.362825
2.44929e-16 1.1781 0.392699
0.765352 1.45123 0.362824
2.44929e-16 1.5708 0.392699
0.765345 1.08843 0.725632
2.44929e-16 1.1781 0.785398
0.765347 1.45123 0.725632
2.44929e-16 1.5708 0.785398
2 0 -4.80918e-17
1.84776 0 0.300559
1.99997 1.08442e-06 -2.37832e-06
1.84773 0.150288 0.300565
2 0 -7.21377e-17
1.84776 0 0.450838
1.99997 2.66813e-06 1.384e-07
1.84773 0.15029 0.450845
1.84776 0 0.300559
1.41421 0 0.55536
1.84773 0.150288 0.300565
1.41419 0.277695 0.555374
1.84776 0 0.450838
1.41421 0 0.833041
1.84773 0.15029 0.450845
1.41419 0.277696 0.833053
1.99997 1.08442e-06 -2.37832e-06
1.84773 0.150288 0.300565
1.99995 7.51155e-07 -2.15375e-06
1.84771 0.300569 0.300567
1.99997 2.66813e-06 1.384e-07
1.84773 0.15029 0.450845
1.99994 2.34955e-06 -3.78825e-07
1.84771 0.300571 0.450846
1.84773 0.150288 0.300565
1.41419 0.277695 0.555374
1.84771 0.300569 0.300567
1.41418 0.555378 0.555377
1.84773 0.15029 0.450845
1.41419 0.277696 0.833053
1.84771 0.300571 0.450846
1.41417 0.555379 0.833054
2 0 -7.21377e-17
1.84776 0 0.450838